y,U_0,U_1,U_2
4.44089e-18,9.68668e-16,2.60853e-24,2.39872e-34
0.002002,0.479203,2.33032e-09,8.13915e-20
0.004004,0.958405,4.66064e-09,1.62783e-19
0.00600601,1.43761,6.99096e-09,2.44174e-19
0.00800801,1.91681,9.32129e-09,3.25566e-19
0.01001,2.39601,1.16516e-08,4.06957e-19
0.012012,2.87522,1.39819e-08,4.88349e-19
0.014014,3.35442,1.63122e-08,5.6974e-19
0.016016,3.83362,1.86426e-08,6.51132e-19
0.018018,4.31282,2.09729e-08,7.32523e-19
0.02002,4.79203,2.33032e-08,8.13915e-19
0.022022,5.27123,2.56335e-08,8.95306e-19
0.024024,5.75043,2.79639e-08,9.76698e-19
0.026026,6.22963,3.02942e-08,1.05809e-18
0.028028,6.70884,3.26245e-08,1.13948e-18
0.03003,7.18804,3.49548e-08,1.22087e-18
0.032032,7.66724,3.72851e-08,1.30226e-18
0.034034,8.14644,3.96155e-08,1.38365e-18
0.036036,8.56187,4.0167e-08,1.53055e-18
0.038038,8.64425,3.14292e-08,2.01952e-18
0.04004,8.72664,2.2692e-08,2.52179e-18
0.042042,8.80902,1.39835e-08,3.67565e-18
0.044044,8.8914,5.27503e-09,4.82951e-18
0.046046,8.96895,-1.44253e-09,5.84166e-18
0.048048,9.03497,-3.41247e-09,6.51588e-18
0.0500501,9.10098,-5.38241e-09,7.19009e-18
0.0520521,9.167,-7.35236e-09,7.86431e-18
0.0540541,9.23302,-9.3223e-09,8.53853e-18
0.0560561,9.29903,-1.12922e-08,9.21274e-18
0.0580581,9.36505,-1.32622e-08,9.88696e-18
0.0600601,9.43107,-1.52321e-08,1.05612e-17
0.0620621,9.49708,-1.72021e-08,1.12354e-17
0.0640641,9.5631,-1.9172e-08,1.19096e-17
0.0660661,9.62911,-2.1142e-08,1.25838e-17
0.0680681,9.69513,-2.31119e-08,1.3258e-17
0.0700701,9.76115,-2.50818e-08,1.39323e-17
0.0720721,9.82047,-2.44567e-08,1.42634e-17
0.0740741,9.86565,-1.83529e-08,1.38704e-17
0.0760761,9.91084,-1.22492e-08,1.34774e-17
0.0780781,9.95602,-6.14541e-09,1.30844e-17
0.0800801,10.0012,-3.82998e-11,1.26875e-17
0.0820821,10.0464,6.14935e-09,1.21984e-17
0.0840841,10.0916,1.2337e-08,1.17093e-17
0.0860861,10.1368,1.85247e-08,1.12202e-17
0.0880881,10.1819,2.47123e-08,1.07311e-17
0.0900901,10.2271,3.09e-08,1.0242e-17
0.0920921,10.2694,3.44319e-08,9.96456e-18
0.0940941,10.3096,3.61254e-08,9.83358e-18
0.0960961,10.3498,3.78188e-08,9.7026e-18
0.0980981,10.3901,3.95123e-08,9.57162e-18
0.1001,10.4303,4.12057e-08,9.44063e-18
0.102102,10.4705,4.28991e-08,9.30965e-18
0.104104,10.5108,4.45926e-08,9.17867e-18
0.106106,10.551,4.6286e-08,9.04768e-18
0.108108,10.5882,4.52383e-08,9.03965e-18
0.11011,10.6221,4.12464e-08,9.16366e-18
0.112112,10.656,3.72545e-08,9.28767e-18
0.114114,10.6899,3.32627e-08,9.41168e-18
0.116116,10.7238,2.92708e-08,9.5357e-18
0.118118,10.7578,2.52789e-08,9.65971e-18
0.12012,10.7917,2.12862e-08,9.73911e-18
0.122122,10.8256,1.72814e-08,9.1196e-18
0.124124,10.8595,1.32766e-08,8.50009e-18
0.126126,10.8934,9.27173e-09,7.88058e-18
0.128128,10.9274,5.26689e-09,7.26107e-18
0.13013,10.9613,1.26206e-09,6.64156e-18
0.132132,10.9952,-2.74277e-09,6.02205e-18
0.134134,11.0291,-6.7476e-09,5.40254e-18
0.136136,11.063,-1.07524e-08,4.78303e-18
0.138138,11.0945,-1.27749e-08,3.72556e-18
0.14014,11.1256,-1.45432e-08,2.61195e-18
0.142142,11.1567,-1.63114e-08,1.49834e-18
0.144144,11.1855,-1.61382e-08,5.23408e-19
0.146146,11.213,-1.48862e-08,-3.7448e-19
0.148148,11.2406,-1.36343e-08,-1.27237e-18
0.15015,11.2681,-1.23824e-08,-2.17025e-18
0.152152,11.2956,-1.11305e-08,-3.06814e-18
0.154154,11.3232,-9.87857e-09,-3.96603e-18
0.156156,11.3507,-8.62665e-09,-4.86392e-18
0.158158,11.3782,-7.37474e-09,-5.76181e-18
0.16016,11.4058,-6.12216e-09,-6.54991e-18
0.162162,11.4333,-4.86207e-09,-6.07544e-18
0.164164,11.4608,-3.60198e-09,-5.60098e-18
0.166166,11.4884,-2.34189e-09,-5.12652e-18
0.168168,11.5159,-1.0818e-09,-4.65206e-18
0.17017,11.5434,1.78292e-10,-4.17759e-18
0.172172,11.5709,1.43838e-09,-3.70313e-18
0.174174,11.5985,2.69847e-09,-3.22867e-18
0.176176,11.626,3.95857e-09,-2.75421e-18
0.178178,11.6535,5.21866e-09,-2.27974e-18
0.18018,11.6792,5.72432e-09,-2.42083e-18
0.182182,11.704,5.86606e-09,-2.90483e-18
0.184184,11.7273,5.19999e-09,-4.25481e-18
0.186186,11.7506,4.53391e-09,-5.60479e-18
0.188188,11.7738,3.86784e-09,-6.95477e-18
0.19019,11.7971,3.20176e-09,-8.30475e-18
0.192192,11.8204,2.53568e-09,-9.65473e-18
0.194194,11.8437,1.86961e-09,-1.10047e-17
0.196196,11.867,1.20353e-09,-1.23547e-17
0.198198,11.8903,5.37456e-10,-1.37047e-17
0.2002,11.9136,-1.26673e-10,-1.47362e-17
0.202202,11.9369,-7.73282e-10,-1.29021e-17
0.204204,11.9602,-1.41989e-09,-1.10679e-17
0.206206,11.9834,-2.0665e-09,-9.23377e-18
0.208208,12.0067,-2.71311e-09,-7.39961e-18
0.21021,12.03,-3.35972e-09,-5.56545e-18
0.212212,12.0533,-4.00632e-09,-3.73129e-18
0.214214,12.0766,-4.65293e-09,-1.89714e-18
0.216216,12.0982,-4.70053e-09,-1.39433e-18
0.218218,12.1198,-4.72594e-09,-9.40832e-19
0.22022,12.1414,-4.75135e-09,-4.87336e-19
0.222222,12.1629,-4.77676e-09,-3.38388e-20
0.224224,12.1845,-4.80217e-09,4.19658e-19
0.226226,12.206,-4.82758e-09,8.73155e-19
0.228228,12.227,-4.70903e-09,1.14689e-18
0.23023,12.2472,-4.4328e-09,1.22373e-18
0.232232,12.2674,-4.15658e-09,1.30057e-18
0.234234,12.2876,-3.88035e-09,1.37742e-18
0.236236,12.3078,-3.60412e-09,1.45426e-18
0.238238,12.328,-3.32789e-09,1.53111e-18
0.24024,12.3482,-3.05744e-09,2.07367e-18
0.242242,12.3684,-2.82934e-09,6.03153e-18
0.244244,12.3886,-2.60124e-09,9.98938e-18
0.246246,12.4089,-2.37313e-09,1.39472e-17
0.248248,12.4291,-2.14503e-09,1.79051e-17
0.25025,12.4491,-1.92155e-09,2.15451e-17
0.252252,12.468,-1.73048e-09,2.29599e-17
0.254254,12.4869,-1.53941e-09,2.43748e-17
0.256256,12.5057,-1.34834e-09,2.57897e-17
0.258258,12.5246,-1.15727e-09,2.72046e-17
0.26026,12.5435,-9.66199e-10,2.86195e-17
0.262262,12.5624,-7.75128e-10,3.00343e-17
0.264264,12.5812,-5.84057e-10,3.14492e-17
0.266266,12.6001,-3.92986e-10,3.28641e-17
0.268268,12.619,-2.01915e-10,3.4279e-17
0.27027,12.6379,-1.08445e-11,3.56938e-17
0.272272,12.6567,1.80226e-10,3.71087e-17
0.274274,12.6748,2.48065e-10,3.73707e-17
0.276276,12.6926,2.7966e-10,3.72935e-17
0.278278,12.7105,3.11254e-10,3.72163e-17
0.28028,12.7283,3.40746e-10,3.78009e-17
0.282282,12.7461,3.57322e-10,4.24502e-17
0.284284,12.764,3.73897e-10,4.70995e-17
0.286286,12.7815,4.20899e-10,5.03018e-17
0.288288,12.7982,5.43965e-10,4.98866e-17
0.29029,12.815,6.67031e-10,4.94714e-17
0.292292,12.8318,7.90097e-10,4.90562e-17
0.294294,12.8485,9.13162e-10,4.8641e-17
0.296296,12.8653,1.03623e-09,4.82258e-17
0.298298,12.882,1.15929e-09,4.78105e-17
0.3003,12.8988,1.28236e-09,4.73953e-17
0.302302,12.9156,1.40543e-09,4.69801e-17
0.304304,12.9323,1.52849e-09,4.65649e-17
0.306306,12.9491,1.65156e-09,4.61497e-17
0.308308,12.9658,1.77462e-09,4.57345e-17
0.31031,12.9826,1.89769e-09,4.53193e-17
0.312312,12.9994,2.02076e-09,4.49041e-17
0.314314,13.0161,2.14382e-09,4.44889e-17
0.316316,13.0329,2.26689e-09,4.40737e-17
0.318318,13.0496,2.38719e-09,4.33305e-17
0.32032,13.0655,2.46799e-09,3.88413e-17
0.322322,13.081,2.55865e-09,3.71704e-17
0.324324,13.096,2.67295e-09,3.42018e-17
0.326326,13.1111,2.78726e-09,3.12332e-17
0.328328,13.1261,2.90156e-09,2.82646e-17
0.33033,13.1411,3.01587e-09,2.5296e-17
0.332332,13.1562,3.13017e-09,2.23274e-17
0.334334,13.1713,3.24606e-09,1.94132e-17
0.336336,13.1865,3.36355e-09,1.65534e-17
0.338338,13.2017,3.48103e-09,1.36937e-17
0.34034,13.217,3.59852e-09,1.08339e-17
0.342342,13.2322,3.716e-09,7.9742e-18
0.344344,13.2474,3.83348e-09,5.11445e-18
0.346346,13.2626,3.95097e-09,2.2547e-18
0.348348,13.2778,4.06845e-09,-6.05043e-19
0.35035,13.2931,4.18594e-09,-3.46479e-18
0.352352,13.3083,4.30342e-09,-6.32454e-18
0.354354,13.3235,4.4209e-09,-9.18428e-18
0.356356,13.3387,4.53839e-09,-1.2044e-17
0.358358,13.3534,4.69887e-09,-1.50556e-17
0.36036,13.3677,4.87404e-09,-1.85271e-17
0.362362,13.3821,4.98938e-09,-2.36467e-17
0.364364,13.3962,5.09979e-09,-2.70187e-17
0.366366,13.4099,5.20159e-09,-2.73325e-17
0.368368,13.4236,5.3034e-09,-2.76464e-17
0.37037,13.4373,5.4052e-09,-2.79602e-17
0.372372,13.4511,5.50701e-09,-2.8274e-17
0.374374,13.4648,5.60881e-09,-2.85879e-17
0.376376,13.4785,5.71062e-09,-2.89017e-17
0.378378,13.4922,5.81242e-09,-2.92155e-17
0.38038,13.506,5.91422e-09,-2.95293e-17
0.382382,13.5197,6.01603e-09,-2.98432e-17
0.384384,13.5334,6.11783e-09,-3.0157e-17
0.386386,13.5472,6.21964e-09,-3.04708e-17
0.388388,13.5609,6.32144e-09,-3.07846e-17
0.39039,13.5746,6.42325e-09,-3.10985e-17
0.392392,13.5883,6.52505e-09,-3.14123e-17
0.394394,13.6015,6.6675e-09,-2.71704e-17
0.396396,13.6144,6.82224e-09,-2.15512e-17
0.398398,13.6274,6.97698e-09,-1.5932e-17
0.4004,13.6403,7.11913e-09,-1.0585e-17
0.402402,13.6533,7.21094e-09,-6.32645e-18
0.404404,13.6663,7.30274e-09,-2.06792e-18
0.406406,13.6792,7.39454e-09,2.19061e-18
0.408408,13.6922,7.48634e-09,6.44913e-18
0.41041,13.7048,7.57567e-09,9.76854e-18
0.412412,13.7172,7.66372e-09,1.26022e-17
0.414414,13.7296,7.75177e-09,1.54358e-17
0.416416,13.7421,7.83982e-09,1.82695e-17
0.418418,13.7545,7.92787e-09,2.11031e-17
0.42042,13.7669,8.01592e-09,2.39368e-17
0.422422,13.7793,8.10397e-09,2.67704e-17
0.424424,13.7918,8.19202e-09,2.96041e-17
0.426426,13.8042,8.28007e-09,3.24377e-17
0.428428,13.8166,8.36812e-09,3.52714e-17
0.43043,13.8284,8.49383e-09,3.55186e-17
0.432432,13.8402,8.62244e-09,3.55668e-17
0.434434,13.8519,8.75104e-09,3.5615e-17
0.436436,13.8637,8.87965e-09,3.56632e-17
0.438438,13.8754,9.00825e-09,3.57114e-17
0.44044,13.8872,9.12515e-09,3.62493e-17
0.442442,13.8989,9.20055e-09,3.85234e-17
0.444444,13.9107,9.27595e-09,4.07975e-17
0.446446,13.9224,9.35135e-09,4.30716e-17
0.448448,13.9342,9.42675e-09,4.53457e-17
0.45045,13.9459,9.50215e-09,4.76197e-17
0.452452,13.9577,9.57754e-09,4.98938e-17
0.454454,13.9694,9.65294e-09,5.21679e-17
0.456456,13.9807,9.73024e-09,5.26991e-17
0.458458,13.992,9.80763e-09,5.31473e-17
0.46046,14.0033,9.88503e-09,5.35955e-17
0.462462,14.0145,9.96242e-09,5.40438e-17
0.464464,14.0258,1.00422e-08,5.4279e-17
0.466466,14.0364,1.01464e-08,5.23419e-17
0.468468,14.0471,1.02506e-08,5.04048e-17
0.47047,14.0577,1.03548e-08,4.84677e-17
0.472472,14.0684,1.04591e-08,4.65306e-17
0.474474,14.079,1.05633e-08,4.45935e-17
0.476476,14.0897,1.06675e-08,4.26564e-17
0.478478,14.1004,1.07717e-08,4.07193e-17
0.48048,14.111,1.08654e-08,3.89367e-17
0.482482,14.1217,1.09257e-08,3.76432e-17
0.484484,14.1323,1.09861e-08,3.63498e-17
0.486486,14.143,1.10464e-08,3.50564e-17
0.488488,14.1536,1.11068e-08,3.37629e-17
0.49049,14.1643,1.11671e-08,3.24695e-17
0.492492,14.1749,1.12275e-08,3.11761e-17
0.494494,14.1856,1.12878e-08,2.98826e-17
0.496496,14.1963,1.13482e-08,2.85892e-17
0.498498,14.2069,1.14085e-08,2.72958e-17
0.500501,14.2173,1.14744e-08,2.61979e-17
0.502503,14.227,1.15567e-08,2.56866e-17
0.504505,14.2366,1.1639e-08,2.51753e-17
0.506507,14.2463,1.17214e-08,2.4664e-17
0.508509,14.2559,1.18037e-08,2.41528e-17
0.510511,14.2656,1.1886e-08,2.36415e-17
0.512513,14.2752,1.19683e-08,2.31302e-17
0.514515,14.2849,1.20506e-08,2.26189e-17
0.516517,14.2945,1.2133e-08,2.21076e-17
0.518519,14.3042,1.22153e-08,2.15963e-17
0.520521,14.3138,1.22883e-08,2.06842e-17
0.522523,14.3235,1.23348e-08,1.86312e-17
0.524525,14.3331,1.23813e-08,1.65782e-17
0.526527,14.3428,1.24278e-08,1.45252e-17
0.528529,14.3524,1.24743e-08,1.24722e-17
0.530531,14.3621,1.25208e-08,1.04193e-17
0.532533,14.3717,1.25673e-08,8.36626e-18
0.534535,14.3814,1.26137e-08,6.31327e-18
0.536537,14.3908,1.26624e-08,5.11332e-18
0.538539,14.3999,1.27142e-08,5.1373e-18
0.540541,14.409,1.2766e-08,5.16128e-18
0.542543,14.4182,1.28178e-08,5.18527e-18
0.544545,14.4273,1.28696e-08,5.20925e-18
0.546547,14.4362,1.29274e-08,5.54484e-18
0.548549,14.4449,1.29901e-08,6.14009e-18
0.550551,14.4536,1.30529e-08,6.73534e-18
0.552553,14.4623,1.31157e-08,7.3306e-18
0.554555,14.471,1.31785e-08,7.92585e-18
0.556557,14.4797,1.32413e-08,8.52111e-18
0.558559,14.4884,1.3304e-08,9.11636e-18
0.560561,14.4971,1.33587e-08,9.7989e-18
0.562563,14.5058,1.33923e-08,1.07059e-17
0.564565,14.5146,1.34259e-08,1.16128e-17
0.566567,14.5233,1.34596e-08,1.25198e-17
0.568569,14.532,1.34932e-08,1.34268e-17
0.570571,14.5407,1.35268e-08,1.43337e-17
0.572573,14.5491,1.35589e-08,1.46967e-17
0.574575,14.5573,1.35898e-08,1.46516e-17
0.576577,14.5655,1.36208e-08,1.46065e-17
0.578579,14.5737,1.36517e-08,1.45614e-17
0.580581,14.5819,1.36826e-08,1.45164e-17
0.582583,14.5901,1.37135e-08,1.44713e-17
0.584585,14.5983,1.37445e-08,1.44262e-17
0.586587,14.6065,1.37754e-08,1.43811e-17
0.588589,14.6147,1.38063e-08,1.43361e-17
0.590591,14.6229,1.38372e-08,1.4291e-17
0.592593,14.6307,1.38803e-08,1.4196e-17
0.594595,14.6385,1.39257e-08,1.40916e-17
0.596597,14.6463,1.39711e-08,1.39872e-17
0.598599,14.6541,1.40164e-08,1.38828e-17
0.600601,14.6619,1.40547e-08,1.39997e-17
0.602603,14.6697,1.40763e-08,1.4633e-17
0.604605,14.6775,1.4098e-08,1.52662e-17
0.606607,14.6853,1.41197e-08,1.58995e-17
0.608609,14.6928,1.41346e-08,1.55152e-17
0.610611,14.7001,1.41471e-08,1.47586e-17
0.612613,14.7074,1.41595e-08,1.4002e-17
0.614615,14.7147,1.4172e-08,1.32454e-17
0.616617,14.722,1.41845e-08,1.24888e-17
0.618619,14.7293,1.41969e-08,1.17322e-17
0.620621,14.7366,1.42094e-08,1.09756e-17
0.622623,14.7439,1.42219e-08,1.0219e-17
0.624625,14.7513,1.42343e-08,9.46236e-18
0.626627,14.7586,1.42468e-08,8.70576e-18
0.628629,14.7659,1.42593e-08,7.94916e-18
0.630631,14.7732,1.42717e-08,7.19256e-18
0.632633,14.7805,1.42842e-08,6.43596e-18
0.634635,14.7878,1.42967e-08,5.67936e-18
0.636637,14.7951,1.43115e-08,4.97755e-18
0.638639,14.802,1.43414e-08,4.62277e-18
0.640641,14.8089,1.4365e-08,3.8742e-18
0.642643,14.8158,1.43754e-08,2.28884e-18
0.644645,14.8223,1.4373e-08,2.48911e-18
0.646647,14.8288,1.4369e-08,2.90366e-18
0.648649,14.8352,1.43651e-08,3.31822e-18
0.650651,14.8417,1.43611e-08,3.73277e-18
0.652653,14.8481,1.43571e-08,4.14732e-18
0.654655,14.8546,1.43532e-08,4.56187e-18
0.656657,14.861,1.43492e-08,4.97642e-18
0.658659,14.8675,1.43452e-08,5.39097e-18
0.660661,14.8739,1.43413e-08,5.80552e-18
0.662663,14.8804,1.43373e-08,6.22007e-18
0.664665,14.8868,1.43333e-08,6.63462e-18
0.666667,14.8933,1.43294e-08,7.04917e-18
0.668669,14.8999,1.43267e-08,7.4113e-18
0.670671,14.9064,1.43241e-08,7.77342e-18
0.672673,14.913,1.43215e-08,8.13554e-18
0.674675,14.9195,1.43188e-08,8.49767e-18
0.676677,14.9261,1.43162e-08,8.85979e-18
0.678679,14.9326,1.43128e-08,9.43857e-18
0.680681,14.9387,1.42866e-08,1.22596e-17
0.682683,14.9446,1.42551e-08,1.19697e-17
0.684685,14.9503,1.42375e-08,1.16359e-17
0.686687,14.956,1.42198e-08,1.13021e-17
0.688689,14.9617,1.42021e-08,1.09684e-17
0.690691,14.9674,1.41844e-08,1.06346e-17
0.692693,14.9731,1.41668e-08,1.03008e-17
0.694695,14.9788,1.41491e-08,9.96707e-18
0.696697,14.9845,1.41314e-08,9.6333e-18
0.698699,14.9902,1.41137e-08,9.29954e-18
0.700701,14.996,1.4096e-08,8.96577e-18
0.702703,15.0017,1.40784e-08,8.63201e-18
0.704705,15.0074,1.40607e-08,8.29824e-18
0.706707,15.0131,1.4043e-08,7.96448e-18
0.708709,15.0188,1.40253e-08,7.63071e-18
0.710711,15.0245,1.40077e-08,7.29695e-18
0.712713,15.0302,1.399e-08,6.96318e-18
0.714715,15.0358,1.3968e-08,6.50598e-18
0.716717,15.0411,1.39305e-08,5.59615e-18
0.718719,15.0463,1.38929e-08,4.68633e-18
0.720721,15.0515,1.38486e-08,1.77946e-18
0.722723,15.0568,1.37922e-08,-4.67772e-18
0.724725,15.062,1.37358e-08,-1.11349e-17
0.726727,15.0673,1.36794e-08,-1.75921e-17
0.728729,15.0722,1.36413e-08,-2.01742e-17
0.730731,15.0771,1.36099e-08,-2.13033e-17
0.732733,15.082,1.35786e-08,-2.24323e-17
0.734735,15.0869,1.35473e-08,-2.35613e-17
0.736737,15.0918,1.35159e-08,-2.46903e-17
0.738739,15.0967,1.34846e-08,-2.58194e-17
0.740741,15.1015,1.34533e-08,-2.69484e-17
0.742743,15.1064,1.34219e-08,-2.80774e-17
0.744745,15.1113,1.33906e-08,-2.92064e-17
0.746747,15.1162,1.33593e-08,-3.03355e-17
0.748749,15.1211,1.33279e-08,-3.14645e-17
0.750751,15.1258,1.32878e-08,-2.97133e-17
0.752753,15.1302,1.32329e-08,-2.31617e-17
0.754755,15.1346,1.31781e-08,-1.66101e-17
0.756757,15.1391,1.31232e-08,-1.00585e-17
0.758759,15.1435,1.30684e-08,-3.50689e-18
0.760761,15.1479,1.3008e-08,-7.55053e-19
0.762763,15.1524,1.29386e-08,-4.20284e-18
0.764765,15.1568,1.28692e-08,-7.65062e-18
0.766767,15.1612,1.27997e-08,-1.10984e-17
0.768769,15.1657,1.27303e-08,-1.45462e-17
0.770771,15.1701,1.26609e-08,-1.7994e-17
0.772773,15.1745,1.25921e-08,-2.13474e-17
0.774775,15.1786,1.25481e-08,-2.06454e-17
0.776777,15.1827,1.25042e-08,-1.99434e-17
0.778779,15.1867,1.24603e-08,-1.92414e-17
0.780781,15.1908,1.24163e-08,-1.85394e-17
0.782783,15.1949,1.23724e-08,-1.78374e-17
0.784785,15.199,1.23284e-08,-1.71354e-17
0.786787,15.2028,1.22702e-08,-1.38551e-17
0.788789,15.2065,1.21995e-08,-8.34029e-18
0.790791,15.2101,1.21288e-08,-2.82549e-18
0.792793,15.2137,1.20581e-08,2.68932e-18
0.794795,15.2174,1.19874e-08,8.20413e-18
0.796797,15.221,1.19168e-08,1.37189e-17
0.798799,15.2246,1.18461e-08,1.92337e-17
0.800801,15.2283,1.1771e-08,2.26948e-17
0.802803,15.2319,1.16895e-08,2.30754e-17
0.804805,15.2355,1.1608e-08,2.3456e-17
0.806807,15.2392,1.15264e-08,2.38365e-17
0.808809,15.2428,1.14449e-08,2.42171e-17
0.810811,15.2464,1.13634e-08,2.45977e-17
0.812813,15.2501,1.12818e-08,2.49782e-17
0.814815,15.2537,1.12003e-08,2.53588e-17
0.816817,15.2573,1.11188e-08,2.57394e-17
0.818819,15.2608,1.10454e-08,2.61436e-17
0.820821,15.2641,1.09898e-08,2.65985e-17
0.822823,15.2671,1.09137e-08,2.68591e-17
0.824825,15.27,1.08288e-08,2.70349e-17
0.826827,15.2729,1.07439e-08,2.72107e-17
0.828829,15.2757,1.06589e-08,2.73865e-17
0.830831,15.2786,1.0574e-08,2.75624e-17
0.832833,15.2815,1.04891e-08,2.77382e-17
0.834835,15.2843,1.04042e-08,2.7914e-17
0.836837,15.2872,1.03192e-08,2.80898e-17
0.838839,15.29,1.02343e-08,2.82657e-17
0.840841,15.2929,1.01462e-08,2.56051e-17
0.842843,15.2958,1.00538e-08,1.90276e-17
0.844845,15.2986,9.96138e-09,1.24501e-17
0.846847,15.3015,9.86894e-09,5.87255e-18
0.848849,15.3044,9.77651e-09,-7.04969e-19
0.850851,15.3072,9.68408e-09,-7.28248e-18
0.852853,15.3101,9.59165e-09,-1.386e-17
0.854855,15.3129,9.49921e-09,-2.04375e-17
0.856857,15.3158,9.40678e-09,-2.7015e-17
0.858859,15.3183,9.28727e-09,-2.75459e-17
0.860861,15.3208,9.16324e-09,-2.70689e-17
0.862863,15.3232,9.03922e-09,-2.6592e-17
0.864865,15.3255,8.93112e-09,-2.30506e-17
0.866867,15.3276,8.83304e-09,-1.75798e-17
0.868869,15.3297,8.73497e-09,-1.2109e-17
0.870871,15.3318,8.6369e-09,-6.63818e-18
0.872873,15.3339,8.53882e-09,-1.16736e-18
0.874875,15.3361,8.44075e-09,4.30346e-18
0.876877,15.3382,8.34268e-09,9.77428e-18
0.878879,15.3403,8.24461e-09,1.52451e-17
0.880881,15.3424,8.14465e-09,1.53195e-17
0.882883,15.3446,8.0423e-09,8.52581e-18
0.884885,15.3467,7.93994e-09,1.7321e-18
0.886887,15.3488,7.83759e-09,-5.06161e-18
0.888889,15.3509,7.73523e-09,-1.18553e-17
0.890891,15.353,7.63288e-09,-1.8649e-17
0.892893,15.3552,7.52993e-09,-2.53476e-17
0.894895,15.3569,7.3944e-09,-2.68114e-17
0.896897,15.3586,7.25887e-09,-2.82752e-17
0.898899,15.3603,7.12334e-09,-2.97389e-17
0.900901,15.362,6.9878e-09,-3.12027e-17
0.902903,15.3637,6.85227e-09,-3.26665e-17
0.904905,15.3655,6.71674e-09,-3.41303e-17
0.906907,15.3672,6.58121e-09,-3.55941e-17
0.908909,15.3689,6.44567e-09,-3.70579e-17
0.910911,15.3703,6.33412e-09,-3.31475e-17
0.912913,15.3717,6.22496e-09,-2.86997e-17
0.914915,15.3731,6.1158e-09,-2.4252e-17
0.916917,15.3745,6.00665e-09,-1.98042e-17
0.918919,15.3759,5.89749e-09,-1.53564e-17
0.920921,15.3773,5.78783e-09,-1.51691e-17
0.922923,15.3787,5.67758e-09,-1.99832e-17
0.924925,15.3801,5.56733e-09,-2.47972e-17
0.926927,15.3815,5.45709e-09,-2.96113e-17
0.928929,15.3828,5.34052e-09,-3.35029e-17
0.930931,15.3838,5.19486e-09,-3.3151e-17
0.932933,15.3848,5.0492e-09,-3.2799e-17
0.934935,15.3858,4.90354e-09,-3.2447e-17
0.936937,15.3868,4.75789e-09,-3.20951e-17
0.938939,15.3878,4.61223e-09,-3.17431e-17
0.940941,15.3888,4.46657e-09,-3.13912e-17
0.942943,15.3898,4.32092e-09,-3.10392e-17
0.944945,15.3908,4.17526e-09,-3.06873e-17
0.946947,15.3918,4.0296e-09,-3.03353e-17
0.948949,15.3928,3.88394e-09,-2.99833e-17
0.950951,15.3938,3.73829e-09,-2.96314e-17
0.952953,15.3948,3.59263e-09,-2.92794e-17
0.954955,15.3958,3.45233e-09,-2.81253e-17
0.956957,15.3965,3.33283e-09,-2.38514e-17
0.958959,15.3971,3.21334e-09,-1.95776e-17
0.960961,15.3978,3.09452e-09,-2.03655e-17
0.962963,15.3985,2.97642e-09,-2.66369e-17
0.964965,15.3991,2.84592e-09,-2.96214e-17
0.966967,15.3994,2.69128e-09,-2.62046e-17
0.968969,15.3997,2.53664e-09,-2.27879e-17
0.970971,15.4,2.382e-09,-1.93711e-17
0.972973,15.4003,2.22736e-09,-1.59544e-17
0.974975,15.4006,2.07272e-09,-1.25377e-17
0.976977,15.4009,1.91808e-09,-9.12093e-18
0.978979,15.4012,1.76344e-09,-5.70419e-18
0.980981,15.4015,1.6088e-09,-2.28746e-18
0.982983,15.4018,1.45416e-09,1.12928e-18
0.984985,15.4021,1.29952e-09,4.54602e-18
0.986987,15.4024,1.14488e-09,7.96276e-18
0.988989,15.4027,9.90234e-10,1.13795e-17
0.990991,15.403,8.35593e-10,1.47962e-17
0.992993,15.4033,6.80953e-10,1.8213e-17
0.994995,15.4036,5.26312e-10,2.16297e-17
0.996997,15.4039,3.71671e-10,2.50464e-17
0.998999,15.4042,2.1703e-10,2.84632e-17
1.001,15.4042,5.85573e-11,3.11594e-17
1.003,15.4039,-1.03748e-10,3.31352e-17
1.00501,15.4036,-2.66054e-10,3.51109e-17
1.00701,15.4033,-4.28359e-10,3.70866e-17
1.00901,15.403,-5.90665e-10,3.90624e-17
1.01101,15.4027,-7.5297e-10,4.10381e-17
1.01301,15.4024,-9.15276e-10,4.30139e-17
1.01502,15.4021,-1.07758e-09,4.49896e-17
1.01702,15.4018,-1.23989e-09,4.69653e-17
1.01902,15.4015,-1.40219e-09,4.89411e-17
1.02102,15.4012,-1.5645e-09,5.09168e-17
1.02302,15.4009,-1.7268e-09,5.28925e-17
1.02503,15.4006,-1.88911e-09,5.48683e-17
1.02703,15.4003,-2.05141e-09,5.6844e-17
1.02903,15.4,-2.21372e-09,5.88198e-17
1.03103,15.3997,-2.37602e-09,6.07955e-17
1.03303,15.3994,-2.53833e-09,6.27712e-17
1.03504,15.3991,-2.70064e-09,6.4747e-17
1.03704,15.3985,-2.88786e-09,6.42526e-17
1.03904,15.3978,-3.08788e-09,6.24898e-17
1.04104,15.3971,-3.28561e-09,6.3929e-17
1.04304,15.3965,-3.48123e-09,6.8324e-17
1.04505,15.3958,-3.67685e-09,7.27191e-17
1.04705,15.3948,-3.85106e-09,7.44392e-17
1.04905,15.3938,-4.01977e-09,7.54715e-17
1.05105,15.3928,-4.18847e-09,7.65038e-17
1.05305,15.3918,-4.35718e-09,7.75361e-17
1.05506,15.3908,-4.52588e-09,7.85685e-17
1.05706,15.3898,-4.69458e-09,7.96008e-17
1.05906,15.3888,-4.86329e-09,8.06331e-17
1.06106,15.3878,-5.03199e-09,8.16654e-17
1.06306,15.3868,-5.2007e-09,8.26977e-17
1.06507,15.3858,-5.3694e-09,8.373e-17
1.06707,15.3848,-5.53811e-09,8.47623e-17
1.06907,15.3838,-5.70681e-09,8.57946e-17
1.07107,15.3828,-5.87552e-09,8.68269e-17
1.07307,15.3815,-6.07545e-09,8.40861e-17
1.07508,15.3801,-6.28217e-09,8.0525e-17
1.07708,15.3787,-6.4889e-09,7.69639e-17
1.07908,15.3773,-6.69562e-09,7.34029e-17
1.08108,15.3759,-6.89802e-09,7.45902e-17
1.08308,15.3745,-7.09674e-09,7.98225e-17
1.08509,15.3731,-7.29545e-09,8.50548e-17
1.08709,15.3717,-7.49417e-09,9.02871e-17
1.08909,15.3703,-7.69289e-09,9.55194e-17
1.09109,15.3689,-7.88932e-09,1.00437e-16
1.09309,15.3672,-8.06291e-09,1.02206e-16
1.0951,15.3655,-8.2365e-09,1.03974e-16
1.0971,15.3637,-8.41009e-09,1.05743e-16
1.0991,15.362,-8.58368e-09,1.07512e-16
1.1011,15.3603,-8.75728e-09,1.09281e-16
1.1031,15.3586,-8.93087e-09,1.1105e-16
1.10511,15.3569,-9.10446e-09,1.12819e-16
1.10711,15.3552,-9.27805e-09,1.14587e-16
1.10911,15.353,-9.48958e-09,1.09979e-16
1.11111,15.3509,-9.70179e-09,1.05255e-16
1.11311,15.3488,-9.91401e-09,1.00531e-16
1.11512,15.3467,-1.01262e-08,9.58065e-17
1.11712,15.3446,-1.03384e-08,9.10824e-17
1.11912,15.3424,-1.05507e-08,8.63582e-17
1.12112,15.3403,-1.07565e-08,8.33473e-17
1.12312,15.3382,-1.09574e-08,8.16827e-17
1.12513,15.3361,-1.11583e-08,8.0018e-17
1.12713,15.3339,-1.13592e-08,7.83534e-17
1.12913,15.3318,-1.156e-08,7.66887e-17
1.13113,15.3297,-1.17609e-08,7.50241e-17
1.13313,15.3276,-1.19618e-08,7.33594e-17
1.13514,15.3255,-1.21627e-08,7.16948e-17
1.13714,15.3232,-1.23542e-08,7.07058e-17
1.13914,15.3208,-1.25308e-08,7.07898e-17
1.14114,15.3183,-1.27075e-08,7.08739e-17
1.14314,15.3158,-1.28895e-08,7.11759e-17
1.14515,15.3129,-1.31039e-08,7.27856e-17
1.14715,15.3101,-1.33184e-08,7.43952e-17
1.14915,15.3072,-1.35328e-08,7.60049e-17
1.15115,15.3044,-1.37472e-08,7.76146e-17
1.15315,15.3015,-1.39616e-08,7.92242e-17
1.15516,15.2986,-1.41761e-08,8.08339e-17
1.15716,15.2958,-1.43905e-08,8.24436e-17
1.15916,15.2929,-1.46049e-08,8.40532e-17
1.16116,15.29,-1.48107e-08,8.51859e-17
1.16316,15.2872,-1.50101e-08,8.59732e-17
1.16517,15.2843,-1.52096e-08,8.67605e-17
1.16717,15.2815,-1.54091e-08,8.75478e-17
1.16917,15.2786,-1.56086e-08,8.83351e-17
1.17117,15.2757,-1.5808e-08,8.91224e-17
1.17317,15.2729,-1.60075e-08,8.99097e-17
1.17518,15.27,-1.6207e-08,9.0697e-17
1.17718,15.2671,-1.64064e-08,9.14843e-17
1.17918,15.2641,-1.66175e-08,9.21841e-17
1.18118,15.2608,-1.68551e-08,9.26834e-17
1.18318,15.2573,-1.70775e-08,9.23987e-17
1.18519,15.2537,-1.72929e-08,9.17481e-17
1.18719,15.2501,-1.75083e-08,9.10975e-17
1.18919,15.2464,-1.77237e-08,9.0447e-17
1.19119,15.2428,-1.79391e-08,8.97964e-17
1.19319,15.2392,-1.81545e-08,8.91458e-17
1.1952,15.2355,-1.83699e-08,8.84953e-17
1.1972,15.2319,-1.85853e-08,8.78447e-17
1.1992,15.2283,-1.88007e-08,8.71941e-17
1.2012,15.2246,-1.90046e-08,9.00582e-17
1.2032,15.221,-1.9201e-08,9.52653e-17
1.20521,15.2174,-1.93973e-08,1.00472e-16
1.20721,15.2137,-1.95936e-08,1.0568e-16
1.20921,15.2101,-1.979e-08,1.10887e-16
1.21121,15.2065,-1.99863e-08,1.16094e-16
1.21321,15.2028,-2.01826e-08,1.21301e-16
1.21522,15.199,-2.03966e-08,1.24139e-16
1.21722,15.1949,-2.0631e-08,1.24244e-16
1.21922,15.1908,-2.08654e-08,1.24349e-16
1.22122,15.1867,-2.10998e-08,1.24454e-16
1.22322,15.1827,-2.13341e-08,1.24559e-16
1.22523,15.1786,-2.15685e-08,1.24664e-16
1.22723,15.1745,-2.18029e-08,1.24768e-16
1.22923,15.1701,-2.20174e-08,1.207e-16
1.23123,15.1657,-2.22314e-08,1.16534e-16
1.23323,15.1612,-2.24454e-08,1.12369e-16
1.23524,15.1568,-2.26595e-08,1.08203e-16
1.23724,15.1524,-2.28735e-08,1.04038e-16
1.23924,15.1479,-2.30875e-08,9.98719e-17
1.24124,15.1435,-2.32867e-08,1.01226e-16
1.24324,15.1391,-2.34768e-08,1.05963e-16
1.24525,15.1346,-2.36668e-08,1.107e-16
1.24725,15.1302,-2.38569e-08,1.15437e-16
1.24925,15.1258,-2.4047e-08,1.20174e-16
1.25125,15.1211,-2.4261e-08,1.22607e-16
1.25325,15.1162,-2.44894e-08,1.23657e-16
1.25526,15.1113,-2.47177e-08,1.24707e-16
1.25726,15.1064,-2.49461e-08,1.25757e-16
1.25926,15.1015,-2.51745e-08,1.26808e-16
1.26126,15.0967,-2.54029e-08,1.27858e-16
1.26326,15.0918,-2.56313e-08,1.28908e-16
1.26527,15.0869,-2.58596e-08,1.29958e-16
1.26727,15.082,-2.6088e-08,1.31009e-16
1.26927,15.0771,-2.63164e-08,1.32059e-16
1.27127,15.0722,-2.65448e-08,1.33109e-16
1.27327,15.0673,-2.67683e-08,1.33089e-16
1.27528,15.062,-2.6979e-08,1.30215e-16
1.27728,15.0568,-2.71896e-08,1.27341e-16
1.27928,15.0515,-2.74002e-08,1.24467e-16
1.28128,15.0463,-2.75918e-08,1.26915e-16
1.28328,15.0411,-2.77727e-08,1.32358e-16
1.28529,15.0358,-2.79535e-08,1.37801e-16
1.28729,15.0302,-2.81645e-08,1.38642e-16
1.28929,15.0245,-2.83836e-08,1.38228e-16
1.29129,15.0188,-2.86027e-08,1.37814e-16
1.29329,15.0131,-2.88218e-08,1.374e-16
1.2953,15.0074,-2.90409e-08,1.36986e-16
1.2973,15.0017,-2.926e-08,1.36572e-16
1.2993,14.996,-2.94791e-08,1.36158e-16
1.3013,14.9902,-2.96982e-08,1.35744e-16
1.3033,14.9845,-2.99173e-08,1.35329e-16
1.30531,14.9788,-3.01364e-08,1.34915e-16
1.30731,14.9731,-3.03555e-08,1.34501e-16
1.30931,14.9674,-3.05746e-08,1.34087e-16
1.31131,14.9617,-3.07937e-08,1.33673e-16
1.31331,14.956,-3.10128e-08,1.33259e-16
1.31532,14.9503,-3.12319e-08,1.32845e-16
1.31732,14.9446,-3.1451e-08,1.32431e-16
1.31932,14.9387,-3.16617e-08,1.29297e-16
1.32132,14.9326,-3.18416e-08,1.29199e-16
1.32332,14.9261,-3.20452e-08,1.26268e-16
1.32533,14.9195,-3.22508e-08,1.23028e-16
1.32733,14.913,-3.24564e-08,1.19788e-16
1.32933,14.9064,-3.26621e-08,1.16548e-16
1.33133,14.8999,-3.28677e-08,1.13308e-16
1.33333,14.8933,-3.30733e-08,1.10067e-16
1.33534,14.8868,-3.32815e-08,1.06996e-16
1.33734,14.8804,-3.34897e-08,1.03924e-16
1.33934,14.8739,-3.36979e-08,1.00853e-16
1.34134,14.8675,-3.39061e-08,9.77814e-17
1.34334,14.861,-3.41144e-08,9.47099e-17
1.34535,14.8546,-3.43226e-08,9.16384e-17
1.34735,14.8481,-3.45308e-08,8.85669e-17
1.34935,14.8417,-3.4739e-08,8.54954e-17
1.35135,14.8352,-3.49472e-08,8.24239e-17
1.35335,14.8288,-3.51554e-08,7.93523e-17
1.35536,14.8223,-3.53636e-08,7.62808e-17
1.35736,14.8158,-3.55766e-08,7.33406e-17
1.35936,14.8089,-3.58296e-08,7.14944e-17
1.36136,14.802,-3.60469e-08,7.1099e-17
1.36336,14.7951,-3.62476e-08,7.13863e-17
1.36537,14.7878,-3.64393e-08,6.76931e-17
1.36737,14.7805,-3.66295e-08,6.33716e-17
1.36937,14.7732,-3.68198e-08,5.905e-17
1.37137,14.7659,-3.70101e-08,5.47284e-17
1.37337,14.7586,-3.72003e-08,5.04068e-17
1.37538,14.7513,-3.73906e-08,4.60852e-17
1.37738,14.7439,-3.75809e-08,4.17636e-17
1.37938,14.7366,-3.77711e-08,3.7442e-17
1.38138,14.7293,-3.79614e-08,3.31204e-17
1.38338,14.722,-3.81517e-08,2.87988e-17
1.38539,14.7147,-3.83419e-08,2.44772e-17
1.38739,14.7074,-3.85322e-08,2.01556e-17
1.38939,14.7001,-3.87225e-08,1.58341e-17
1.39139,14.6928,-3.89128e-08,1.15125e-17
1.39339,14.6853,-3.91154e-08,6.4669e-18
1.3954,14.6775,-3.93521e-08,-5.57532e-19
1.3974,14.6697,-3.95887e-08,-7.58197e-18
1.3994,14.6619,-3.98253e-08,-1.46064e-17
1.4014,14.6541,-4.00165e-08,-2.25469e-17
1.4034,14.6463,-4.01881e-08,-3.088e-17
1.40541,14.6385,-4.03597e-08,-3.92131e-17
1.40741,14.6307,-4.05313e-08,-4.75462e-17
1.40941,14.6229,-4.07021e-08,-5.48911e-17
1.41141,14.6147,-4.08683e-08,-5.7012e-17
1.41341,14.6065,-4.10345e-08,-5.91329e-17
1.41542,14.5983,-4.12007e-08,-6.12539e-17
1.41742,14.5901,-4.13669e-08,-6.33748e-17
1.41942,14.5819,-4.15331e-08,-6.54958e-17
1.42142,14.5737,-4.16993e-08,-6.76167e-17
1.42342,14.5655,-4.18656e-08,-6.97376e-17
1.42543,14.5573,-4.20318e-08,-7.18586e-17
1.42743,14.5491,-4.2198e-08,-7.39795e-17
1.42943,14.5407,-4.23848e-08,-7.33687e-17
1.43143,14.532,-4.25991e-08,-6.91155e-17
1.43343,14.5233,-4.28135e-08,-6.48623e-17
1.43544,14.5146,-4.30278e-08,-6.06091e-17
1.43744,14.5058,-4.32421e-08,-5.63559e-17
1.43944,14.4971,-4.34564e-08,-5.21028e-17
1.44144,14.4884,-4.36129e-08,-5.09383e-17
1.44344,14.4797,-4.37468e-08,-5.09749e-17
1.44545,14.471,-4.38808e-08,-5.10116e-17
1.44745,14.4623,-4.40147e-08,-5.10483e-17
1.44945,14.4536,-4.41487e-08,-5.10849e-17
1.45145,14.4449,-4.42826e-08,-5.11216e-17
1.45345,14.4362,-4.44166e-08,-5.11583e-17
1.45546,14.4273,-4.45508e-08,-5.05614e-17
1.45746,14.4182,-4.46854e-08,-4.92043e-17
1.45946,14.409,-4.482e-08,-4.78471e-17
1.46146,14.3999,-4.49545e-08,-4.649e-17