0.9987341772	3.80693089168054E-05
0.9960897481	3.80732905066366E-05
0.993210414	3.80823658417272E-05
0.9900768611	3.80978611371415E-05
0.9866684822	3.81213682274547E-05
0.9829633473	3.81547896546327E-05
0.9789381852	3.82003895170839E-05
0.9745683806	3.82608506255545E-05
0.9698279891	3.83393382268837E-05
0.9646897735	3.84395702770129E-05
0.9591252669	3.85658939680129E-05
0.9531048657	3.87233678212285E-05
0.9465979583	3.89178481015839E-05
0.9395730937	3.9156077551145E-05
0.9319981951	3.94457736061158E-05
0.9238408242	3.97957120785012E-05
0.9150684989	4.02158007331999E-05
0.9056490705	4.0717135734171E-05
0.8955511608	0.000041312
0.884744662	0.000042014
0.8732012982	4.28377757730934E-05
0.8608952456	0.000043799
0.8478038054	4.49143522877263E-05
0.8339081205	4.62008752938979E-05
0.8191939233	4.76759313675565E-05
0.8036522979	4.93565873598122E-05
0.7872804352	5.12591101470341E-05
0.7700823585	5.33983828874628E-05
0.7520695903	5.5787314175993E-05
0.7332617303	5.84362930660263E-05
0.7136869155	6.135274981384E-05
0.6933821294	6.45408818076869E-05
0.6723933328	6.80015954019554E-05
0.6507753917	7.1732697955595E-05
0.6285917842	7.57293526333472E-05
0.6059140757	7.99847845109025E-05
0.5828211621	8.44912056644984E-05
0.559398292	8.92409099145056E-05
0.5357358869	9.42274768940977E-05
0.5119281934	0.000099447
0.4880718066	0.0001048994
0.4642641131	0.0001105895
0.440601708	0.0001165279
0.4171788379	0.0001227322
0.3940859243	0.0001292271
0.3714082158	0.0001360451
0.3492246083	0.0001432262
0.3276066672	0.0001508172
0.3066178706	0.0001588715
0.2863130845	0.0001674469
0.2667382697	0.0001766042
0.2479304097	0.0001864054
0.2299176415	0.0001969109
0.2127195648	0.0002081778
0.1963477021	0.0002202574
0.1808060767	0.0002331939
0.1660918795	0.0002470228
0.1521961946	0.0002617698
0.1391047544	0.0002774501
0.1267987018	0.0002940668
0.115255338	0.0003116094
0.1044488392	0.0003300489
0.0943509295	0.0003493303
0.0849315011	0.0003693588
0.0761591758	0.0003899756
0.0680018049	0.0004109171
0.0604269063	0.0004317481
0.0534020417	0.0004517515
0.0468951343	0.0004697504
0.0408747331	0.0004838353
0.0353102265	0.0004909882
0.0301720109	0.0004867012
0.0254316194	0.0004650212
0.0210618148	0.0004201069
0.0170366527	0.0003504797
0.0133315178	0.0002637641
0.0099231389	0.0001751746
0.006789586	9.81589188541104E-05
0.0039102519	0.000039626
0.0012658228	3.81518765244771E-06
