0.9987341772	-7.11321258085874E-08
0.9960897481	-2.19744702177557E-07
0.993210414	-3.81592949850698E-07
0.9900768611	-5.57789919315528E-07
0.9866684822	-7.4952282008038E-07
0.9829633473	-9.58054766824723E-07
0.9789381852	-1.18472611088452E-06
0.9745683806	-0.000001431
0.9698279891	-1.69823607065774E-06
0.9646897735	-1.98813968621235E-06
0.9591252669	-2.30230708264538E-06
0.9531048657	-2.64244552187548E-06
0.9465979583	-3.01032049885128E-06
0.9395730937	-3.40774552742973E-06
0.9319981951	-3.83656900939776E-06
0.9238408242	-4.2986578187698E-06
0.9150684989	-4.79587726991843E-06
0.9056490705	-5.33006723695843E-06
0.8955511608	-0.000005903
0.884744662	-6.51642056331619E-06
0.8732012982	-7.17186836113888E-06
0.8608952456	-7.87078404222558E-06
0.8478038054	-8.61439996197155E-06
0.8339081205	-9.40371764393459E-06
0.8191939233	-1.02394732825633E-05
0.8036522979	-1.11221068602326E-05
0.7872804352	-1.20517352358539E-05
0.7700823585	-1.30281283863294E-05
0.7520695903	-1.40506868059004E-05
0.7332617303	-1.51184173736036E-05
0.7136869155	-1.62299052672073E-05
0.6933821294	-1.7383280981122E-05
0.6723933328	-1.85761840080775E-05
0.6507753917	-1.9805727606816E-05
0.6285917842	-2.10684713544324E-05
0.6059140757	-2.236040887748E-05
0.5828211621	-0.000023677
0.559398292	-2.50130905316385E-05
0.5357358869	-2.63632012639849E-05
0.5119281934	-2.77213796726464E-05
0.4880718066	-2.90814105960924E-05
0.4642641131	-3.04368962755465E-05
0.440601708	-3.17813582627204E-05
0.4171788379	-3.31083311831589E-05
0.3940859243	-3.44114429153025E-05
0.3714082158	-3.56844777292726E-05
0.3492246083	-3.69214211458314E-05
0.3276066672	-3.81164877992543E-05
0.3066178706	-3.92641365213718E-05
0.2863130845	-4.03590762326365E-05
0.2667382697	-4.13962534564178E-05
0.2479304097	-4.23708137965486E-05
0.2299176415	-4.32780549603723E-05
0.2127195648	-4.41133631297115E-05
0.1963477021	-4.48721244229978E-05
0.1808060767	-4.55495980330905E-05
0.1660918795	-4.61407324842405E-05
0.1521961946	-4.66399016959488E-05
0.1391047544	-4.70405329904525E-05
0.1267987018	-4.7334593449053E-05
0.115255338	-4.7511891575585E-05
0.1044488392	-4.75591354605162E-05
0.0943509295	-4.74586646481155E-05
0.0849315011	-4.71867439506397E-05
0.0761591758	-4.67112599521589E-05
0.0680018049	-4.59884594624427E-05
0.0604269063	-4.49589136901729E-05
0.0534020417	-4.35424835898531E-05
0.0468951343	-4.1632648801772E-05
0.0408747331	-3.90931406496937E-05
0.0353102265	-3.57635650491312E-05
0.0301720109	-3.14897237208689E-05
0.0254316194	-2.62070823181722E-05
0.0210618148	-2.0100715617789E-05
0.0170366527	-1.37722268719321E-05
0.0133315178	-0.000008142
0.0099231389	-0.000003978
0.006789586	-1.45946915760344E-06
0.0039102519	-2.94251751957033E-07
0.0012658228	-5.13047786327217E-09