0.9987341772	1.93135007633391E-05
0.9960897481	1.93146944213211E-05
0.993210414	1.93174213300248E-05
0.9900768611	1.93220801831724E-05
0.9866684822	1.9329150882476E-05
0.9829633473	1.93392072943112E-05
0.9789381852	1.93529328848884E-05
0.9745683806	1.93711385644479E-05
0.9698279891	1.93947826957695E-05
0.9646897735	0.000019425
0.9591252669	1.94630935042922E-05
0.9531048657	1.95106272236133E-05
0.9465979583	1.95693898058144E-05
0.9395730937	1.9641458504545E-05
0.9319981951	1.97292249420291E-05
0.9238408242	1.98354275380924E-05
0.9150684989	1.99631830004522E-05
0.9056490705	0.000020116
0.8955511608	2.02978747336689E-05
0.884744662	2.05131572784658E-05
0.8732012982	2.07666970150434E-05
0.8608952456	2.1063748872825E-05
0.8478038054	2.1409942134175E-05
0.8339081205	2.18112031369943E-05
0.8191939233	2.22736411941788E-05
0.8036522979	2.28033942839108E-05
0.7872804352	2.34064342557601E-05
0.7700823585	2.40883356889902E-05
0.7520695903	0.000024854
0.7332617303	2.57074727399416E-05
0.7136869155	2.66515012322768E-05
0.6933821294	2.7687470532905E-05
0.6723933328	2.88151177212317E-05
0.6507753917	3.00324092637776E-05
0.6285917842	3.13354645146324E-05
0.6059140757	3.27185411990831E-05
0.5828211621	3.41740721170895E-05
0.559398292	3.56927361808259E-05
0.5357358869	3.72635424246535E-05
0.5119281934	3.88739046683921E-05
0.4880718066	4.05096870712163E-05
0.4642641131	4.21552066474343E-05
0.440601708	4.37931875572196E-05
0.4171788379	4.5404673188229E-05
0.3940859243	4.69689151924144E-05
0.3714082158	4.84632730521908E-05
0.3492246083	4.98631724000663E-05
0.3276066672	5.11421835403414E-05
0.3066178706	5.22722909947868E-05
0.2863130845	5.32244240175618E-05
0.2667382697	5.39692467089812E-05
0.2479304097	5.44781399555723E-05
0.2299176415	5.47244090715423E-05
0.2127195648	5.46846259380356E-05
0.1963477021	0.00005434
0.1808060767	5.36774646943684E-05
0.1660918795	5.26908003263864E-05
0.1521961946	5.13808716531965E-05
0.1391047544	4.97557014108382E-05
0.1267987018	4.78299015688393E-05
0.115255338	4.56236903004159E-05
0.1044488392	4.31616010527883E-05
0.0943509295	4.04710511846873E-05
0.0849315011	0.000037581
0.0761591758	3.45205712661267E-05
0.0680018049	3.13186965532488E-05
0.0604269063	2.80036093287648E-05
0.0534020417	2.46039472210288E-05
0.0468951343	2.11509356797837E-05
0.0408747331	1.76829197245896E-05
0.0353102265	1.42531493819802E-05
0.0301720109	1.0941372604289E-05
0.0254316194	7.86687384212305E-06
0.0210618148	5.19124691948222E-06
0.0170366527	3.08450851715061E-06
0.0133315178	0.000001617
0.0099231389	7.23378280358929E-07
0.006789586	2.51844739782735E-07
0.0039102519	4.97960875104907E-08
0.0012658228	8.46715496504915E-10