# Wall shear stress
# Time        	patch         	min           	max           
0.000000e+00	bottom	(-2.559611e+01 0.000000e+00 0.000000e+00)	(-2.559611e+01 0.000000e+00 0.000000e+00)
0.000000e+00	top	(-2.559611e+01 0.000000e+00 0.000000e+00)	(-2.559611e+01 0.000000e+00 0.000000e+00)
1.000000e+00	bottom	(-4.384147e-01 -1.800342e-17 -1.183669e-35)	(-4.384147e-01 -1.800342e-17 -1.183669e-35)
1.000000e+00	top	(-4.384140e-01 9.612286e-21 -8.133943e-55)	(-4.384140e-01 9.612286e-21 -8.133943e-55)
2.000000e+00	bottom	(-3.515013e-01 -1.783476e-17 -3.132871e-35)	(-3.515013e-01 -1.783476e-17 -3.132871e-35)
2.000000e+00	top	(-3.515004e-01 1.362399e-20 -1.176097e-46)	(-3.515004e-01 1.362399e-20 -1.176097e-46)
3.000000e+00	bottom	(-3.210170e-01 -2.123464e-17 -1.707419e-35)	(-3.210170e-01 -2.123464e-17 -1.707419e-35)
3.000000e+00	top	(-3.210156e-01 1.781406e-20 -3.759189e-44)	(-3.210156e-01 1.781406e-20 -3.759189e-44)
4.000000e+00	bottom	(-3.078770e-01 -2.200594e-17 -2.391370e-35)	(-3.078770e-01 -2.200594e-17 -2.391370e-35)
4.000000e+00	top	(-3.078767e-01 1.736421e-20 -5.601376e-43)	(-3.078767e-01 1.736421e-20 -5.601376e-43)
5.000000e+00	bottom	(-3.112997e-01 -2.265174e-17 -7.125073e-35)	(-3.112997e-01 -2.265174e-17 -7.125073e-35)
5.000000e+00	top	(-3.113068e-01 1.853029e-20 -3.666816e-42)	(-3.113068e-01 1.853029e-20 -3.666816e-42)
6.000000e+00	bottom	(-5.042868e-01 -1.899343e-17 -1.581389e-35)	(-5.042868e-01 -1.899343e-17 -1.581389e-35)
6.000000e+00	top	(-5.050924e-01 3.283154e-20 -6.223757e-41)	(-5.050924e-01 3.283154e-20 -6.223757e-41)
7.000000e+00	bottom	(-8.560886e-01 -2.277337e-17 -6.294448e-35)	(-8.560886e-01 -2.277337e-17 -6.294448e-35)
7.000000e+00	top	(-8.560486e-01 7.378919e-20 -4.019318e-40)	(-8.560486e-01 7.378919e-20 -4.019318e-40)
8.000000e+00	bottom	(-8.954775e-01 -2.292237e-17 -2.946808e-35)	(-8.954775e-01 -2.292237e-17 -2.946808e-35)
8.000000e+00	top	(-8.954696e-01 8.080175e-20 -8.663355e-40)	(-8.954696e-01 8.080175e-20 -8.663355e-40)
9.000000e+00	bottom	(-9.219294e-01 -2.343397e-17 -3.261079e-35)	(-9.219294e-01 -2.343397e-17 -3.261079e-35)
9.000000e+00	top	(-9.218872e-01 8.950785e-20 -3.749344e-39)	(-9.218872e-01 8.950785e-20 -3.749344e-39)
1.000000e+01	bottom	(-9.214451e-01 -2.576475e-17 -6.082536e-35)	(-9.214451e-01 -2.576475e-17 -6.082536e-35)
1.000000e+01	top	(-9.214175e-01 8.817658e-20 -2.428597e-38)	(-9.214175e-01 8.817658e-20 -2.428597e-38)
1.100000e+01	bottom	(-9.225154e-01 -2.700439e-17 -4.725638e-35)	(-9.225154e-01 -2.700439e-17 -4.725638e-35)
1.100000e+01	top	(-9.225172e-01 7.891299e-20 -6.331768e-38)	(-9.225172e-01 7.891299e-20 -6.331768e-38)
1.200000e+01	bottom	(-9.275800e-01 -3.023300e-17 -3.847176e-35)	(-9.275800e-01 -3.023300e-17 -3.847176e-35)
1.200000e+01	top	(-9.276041e-01 6.735535e-20 -1.116435e-37)	(-9.276041e-01 6.735535e-20 -1.116435e-37)
1.300000e+01	bottom	(-9.344193e-01 -3.015322e-17 -3.404796e-35)	(-9.344193e-01 -3.015322e-17 -3.404796e-35)
1.300000e+01	top	(-9.344464e-01 4.740470e-20 -1.645464e-37)	(-9.344464e-01 4.740470e-20 -1.645464e-37)
1.400000e+01	bottom	(-9.411053e-01 -3.528115e-17 -3.201419e-35)	(-9.411053e-01 -3.528115e-17 -3.201419e-35)
1.400000e+01	top	(-9.411278e-01 3.143831e-20 -2.209286e-37)	(-9.411278e-01 3.143831e-20 -2.209286e-37)
1.500000e+01	bottom	(-9.467763e-01 -3.747232e-17 -4.349467e-35)	(-9.467763e-01 -3.747232e-17 -4.349467e-35)
1.500000e+01	top	(-9.468163e-01 1.041294e-20 -2.806821e-37)	(-9.468163e-01 1.041294e-20 -2.806821e-37)
1.600000e+01	bottom	(-9.518659e-01 -3.488239e-17 -4.158330e-35)	(-9.518659e-01 -3.488239e-17 -4.158330e-35)
1.600000e+01	top	(-9.519000e-01 -1.592674e-20 -3.435635e-37)	(-9.519000e-01 -1.592674e-20 -3.435635e-37)
1.700000e+01	bottom	(-9.564036e-01 -3.835516e-17 -2.715161e-35)	(-9.564036e-01 -3.835516e-17 -2.715161e-35)
1.700000e+01	top	(-9.564353e-01 -3.899217e-20 -4.084979e-37)	(-9.564353e-01 -3.899217e-20 -4.084979e-37)
1.800000e+01	bottom	(-9.604287e-01 -3.518967e-17 -3.921605e-35)	(-9.604287e-01 -3.518967e-17 -3.921605e-35)
1.800000e+01	top	(-9.604597e-01 -6.856315e-20 -4.740259e-37)	(-9.604597e-01 -6.856315e-20 -4.740259e-37)
1.900000e+01	bottom	(-9.640684e-01 -3.587024e-17 -4.282270e-35)	(-9.640684e-01 -3.587024e-17 -4.282270e-35)
1.900000e+01	top	(-9.640978e-01 -9.649955e-20 -5.391909e-37)	(-9.640978e-01 -9.649955e-20 -5.391909e-37)
2.000000e+01	bottom	(-9.673815e-01 -4.025957e-17 -4.000221e-35)	(-9.673815e-01 -4.025957e-17 -4.000221e-35)
2.000000e+01	top	(-9.674093e-01 -1.094609e-19 -6.032883e-37)	(-9.674093e-01 -1.094609e-19 -6.032883e-37)
2.100000e+01	bottom	(-9.703975e-01 -4.025055e-17 -4.406430e-35)	(-9.703975e-01 -4.025055e-17 -4.406430e-35)
2.100000e+01	top	(-9.704233e-01 -1.171937e-19 -6.656867e-37)	(-9.704233e-01 -1.171937e-19 -6.656867e-37)
2.200000e+01	bottom	(-9.731395e-01 -3.615215e-17 -5.617685e-35)	(-9.731395e-01 -3.615215e-17 -5.617685e-35)
2.200000e+01	top	(-9.731632e-01 -1.084199e-19 -7.260371e-37)	(-9.731632e-01 -1.084199e-19 -7.260371e-37)
2.300000e+01	bottom	(-9.756302e-01 -3.968266e-17 -3.486313e-35)	(-9.756302e-01 -3.968266e-17 -3.486313e-35)
2.300000e+01	top	(-9.756519e-01 -1.016379e-19 -7.845025e-37)	(-9.756519e-01 -1.016379e-19 -7.845025e-37)
2.400000e+01	bottom	(-9.778918e-01 -4.050030e-17 -8.099003e-36)	(-9.778918e-01 -4.050030e-17 -8.099003e-36)
2.400000e+01	top	(-9.779116e-01 -1.023551e-19 -8.415577e-37)	(-9.779116e-01 -1.023551e-19 -8.415577e-37)
2.500000e+01	bottom	(-9.797372e-01 -4.037751e-17 -5.817856e-35)	(-9.797372e-01 -4.037751e-17 -5.817856e-35)
2.500000e+01	top	(-9.797672e-01 -1.173567e-19 -8.973895e-37)	(-9.797672e-01 -1.173567e-19 -8.973895e-37)
2.600000e+01	bottom	(-9.816395e-01 -3.968671e-17 -4.836587e-35)	(-9.816395e-01 -3.968671e-17 -4.836587e-35)
2.600000e+01	top	(-9.816574e-01 -1.108797e-19 -9.522725e-37)	(-9.816574e-01 -1.108797e-19 -9.522725e-37)
2.700000e+01	bottom	(-9.831052e-01 -4.003633e-17 -3.775885e-35)	(-9.831052e-01 -4.003633e-17 -3.775885e-35)
2.700000e+01	top	(-9.831397e-01 -1.087297e-19 -1.005605e-36)	(-9.831397e-01 -1.087297e-19 -1.005605e-36)
2.800000e+01	bottom	(-9.845941e-01 -3.750210e-17 -2.034629e-35)	(-9.845941e-01 -3.750210e-17 -2.034629e-35)
2.800000e+01	top	(-9.846266e-01 -1.155198e-19 -1.057791e-36)	(-9.846266e-01 -1.155198e-19 -1.057791e-36)
2.900000e+01	bottom	(-9.859788e-01 -3.835815e-17 -5.894717e-36)	(-9.859788e-01 -3.835815e-17 -5.894717e-36)
2.900000e+01	top	(-9.860079e-01 -1.133351e-19 -1.108713e-36)	(-9.860079e-01 -1.133351e-19 -1.108713e-36)
3.000000e+01	bottom	(-9.872533e-01 -3.864069e-17 -5.387990e-35)	(-9.872533e-01 -3.864069e-17 -5.387990e-35)
3.000000e+01	top	(-9.872796e-01 -1.105831e-19 -1.158041e-36)	(-9.872796e-01 -1.105831e-19 -1.158041e-36)
3.100000e+01	bottom	(-9.884439e-01 -4.208542e-17 -6.358000e-35)	(-9.884439e-01 -4.208542e-17 -6.358000e-35)
3.100000e+01	top	(-9.884681e-01 -1.023840e-19 -1.205473e-36)	(-9.884681e-01 -1.023840e-19 -1.205473e-36)
3.200000e+01	bottom	(-9.895366e-01 -3.976214e-17 -4.100024e-35)	(-9.895366e-01 -3.976214e-17 -4.100024e-35)
3.200000e+01	top	(-9.895585e-01 -1.020941e-19 -1.250918e-36)	(-9.895585e-01 -1.020941e-19 -1.250918e-36)
3.300000e+01	bottom	(-9.905296e-01 -3.914576e-17 -3.366114e-36)	(-9.905296e-01 -3.914576e-17 -3.366114e-36)
3.300000e+01	top	(-9.905495e-01 -1.164784e-19 -1.294500e-36)	(-9.905495e-01 -1.164784e-19 -1.294500e-36)
3.400000e+01	bottom	(-9.914277e-01 -4.132704e-17 -4.485988e-35)	(-9.914277e-01 -4.132704e-17 -4.485988e-35)
3.400000e+01	top	(-9.914457e-01 -1.006473e-19 -1.336155e-36)	(-9.914457e-01 -1.006473e-19 -1.336155e-36)
3.500000e+01	bottom	(-9.922387e-01 -3.809305e-17 -1.459964e-35)	(-9.922387e-01 -3.809305e-17 -1.459964e-35)
3.500000e+01	top	(-9.922551e-01 -1.138533e-19 -1.376133e-36)	(-9.922551e-01 -1.138533e-19 -1.376133e-36)
3.600000e+01	bottom	(-9.929718e-01 -3.822784e-17 -4.864758e-35)	(-9.929718e-01 -3.822784e-17 -4.864758e-35)
3.600000e+01	top	(-9.929869e-01 -1.098494e-19 -1.414693e-36)	(-9.929869e-01 -1.098494e-19 -1.414693e-36)
3.700000e+01	bottom	(-9.936146e-01 -3.828467e-17 -5.425658e-35)	(-9.936146e-01 -3.828467e-17 -5.425658e-35)
3.700000e+01	top	(-9.936280e-01 -1.010993e-19 -1.451920e-36)	(-9.936280e-01 -1.010993e-19 -1.451920e-36)
3.800000e+01	bottom	(-9.941661e-01 -3.899798e-17 -2.290688e-35)	(-9.941661e-01 -3.899798e-17 -2.290688e-35)
3.800000e+01	top	(-9.941790e-01 -1.119774e-19 -1.487928e-36)	(-9.941790e-01 -1.119774e-19 -1.487928e-36)
3.900000e+01	bottom	(-9.945035e-01 -3.726022e-17 -3.361288e-35)	(-9.945035e-01 -3.726022e-17 -3.361288e-35)
3.900000e+01	top	(-9.946639e-01 -1.090810e-19 -1.522645e-36)	(-9.946639e-01 -1.090810e-19 -1.522645e-36)
4.000000e+01	bottom	(-9.948738e-01 -3.824719e-17 -3.353953e-35)	(-9.948738e-01 -3.824719e-17 -3.353953e-35)
4.000000e+01	top	(-9.948985e-01 -1.023603e-19 -1.555651e-36)	(-9.948985e-01 -1.023603e-19 -1.555651e-36)
4.100000e+01	bottom	(-9.954516e-01 -3.645910e-17 -5.529775e-35)	(-9.954516e-01 -3.645910e-17 -5.529775e-35)
4.100000e+01	top	(-9.953217e-01 -1.078159e-19 -1.587703e-36)	(-9.953217e-01 -1.078159e-19 -1.587703e-36)
4.200000e+01	bottom	(-9.956745e-01 -3.953603e-17 -4.033319e-35)	(-9.956745e-01 -3.953603e-17 -4.033319e-35)
4.200000e+01	top	(-9.956644e-01 -1.065571e-19 -1.618680e-36)	(-9.956644e-01 -1.065571e-19 -1.618680e-36)
4.300000e+01	bottom	(-9.958533e-01 -4.004255e-17 -1.300553e-35)	(-9.958533e-01 -4.004255e-17 -1.300553e-35)
4.300000e+01	top	(-9.958664e-01 -1.153456e-19 -1.648720e-36)	(-9.958664e-01 -1.153456e-19 -1.648720e-36)
4.400000e+01	bottom	(-9.962006e-01 -3.833032e-17 -1.904980e-35)	(-9.962006e-01 -3.833032e-17 -1.904980e-35)
4.400000e+01	top	(-9.962353e-01 -1.118814e-19 -1.678325e-36)	(-9.962353e-01 -1.118814e-19 -1.678325e-36)
4.500000e+01	bottom	(-9.965097e-01 -4.034586e-17 -4.908486e-35)	(-9.965097e-01 -4.034586e-17 -4.908486e-35)
4.500000e+01	top	(-9.966151e-01 -1.140389e-19 -1.707302e-36)	(-9.966151e-01 -1.140389e-19 -1.707302e-36)
4.600000e+01	bottom	(-9.966884e-01 -4.020764e-17 -6.645449e-35)	(-9.966884e-01 -4.020764e-17 -6.645449e-35)
4.600000e+01	top	(-9.968359e-01 -1.108995e-19 -1.735270e-36)	(-9.968359e-01 -1.108995e-19 -1.735270e-36)
4.700000e+01	bottom	(-9.970377e-01 -4.144710e-17 -9.445810e-36)	(-9.970377e-01 -4.144710e-17 -9.445810e-36)
4.700000e+01	top	(-9.970442e-01 -1.160479e-19 -1.762233e-36)	(-9.970442e-01 -1.160479e-19 -1.762233e-36)
4.800000e+01	bottom	(-9.972736e-01 -3.883443e-17 -6.489533e-35)	(-9.972736e-01 -3.883443e-17 -6.489533e-35)
4.800000e+01	top	(-9.972099e-01 -1.122751e-19 -1.788163e-36)	(-9.972099e-01 -1.122751e-19 -1.788163e-36)
4.900000e+01	bottom	(-9.976039e-01 -3.891914e-17 -3.049975e-35)	(-9.976039e-01 -3.891914e-17 -3.049975e-35)
4.900000e+01	top	(-9.975246e-01 -6.874894e-20 -1.813384e-36)	(-9.975246e-01 -6.874894e-20 -1.813384e-36)
5.000000e+01	bottom	(-9.975772e-01 -4.133257e-17 -3.575173e-35)	(-9.975772e-01 -4.133257e-17 -3.575173e-35)
5.000000e+01	top	(-9.975966e-01 -1.098555e-19 -1.836920e-36)	(-9.975966e-01 -1.098555e-19 -1.836920e-36)
5.100000e+01	bottom	(-9.978893e-01 -3.842197e-17 -4.410441e-35)	(-9.978893e-01 -3.842197e-17 -4.410441e-35)
5.100000e+01	top	(-9.979165e-01 -1.012101e-19 -1.859373e-36)	(-9.979165e-01 -1.012101e-19 -1.859373e-36)
5.200000e+01	bottom	(-9.980970e-01 -3.896316e-17 -2.861358e-35)	(-9.980970e-01 -3.896316e-17 -2.861358e-35)
5.200000e+01	top	(-9.979843e-01 -1.125217e-19 -1.879744e-36)	(-9.979843e-01 -1.125217e-19 -1.879744e-36)
5.300000e+01	bottom	(-9.981693e-01 -3.991730e-17 -3.454731e-35)	(-9.981693e-01 -3.991730e-17 -3.454731e-35)
5.300000e+01	top	(-9.982147e-01 -1.091580e-19 -1.899330e-36)	(-9.982147e-01 -1.091580e-19 -1.899330e-36)
5.400000e+01	bottom	(-9.982196e-01 -3.859781e-17 -1.489381e-35)	(-9.982196e-01 -3.859781e-17 -1.489381e-35)
5.400000e+01	top	(-9.983216e-01 -1.117244e-19 -1.918052e-36)	(-9.983216e-01 -1.117244e-19 -1.918052e-36)
5.500000e+01	bottom	(-9.983274e-01 -3.813855e-17 -4.293306e-35)	(-9.983274e-01 -3.813855e-17 -4.293306e-35)
5.500000e+01	top	(-9.984061e-01 -1.154930e-19 -1.936014e-36)	(-9.984061e-01 -1.154930e-19 -1.936014e-36)
5.600000e+01	bottom	(-9.984237e-01 -3.695970e-17 -3.566397e-35)	(-9.984237e-01 -3.695970e-17 -3.566397e-35)
5.600000e+01	top	(-9.984777e-01 -1.009607e-19 -1.953190e-36)	(-9.984777e-01 -1.009607e-19 -1.953190e-36)
5.700000e+01	bottom	(-9.986293e-01 -3.761348e-17 -3.272126e-35)	(-9.986293e-01 -3.761348e-17 -3.272126e-35)
5.700000e+01	top	(-9.986368e-01 -1.168037e-19 -1.969866e-36)	(-9.986368e-01 -1.168037e-19 -1.969866e-36)
5.800000e+01	bottom	(-9.988319e-01 -3.945546e-17 -4.917513e-35)	(-9.988319e-01 -3.945546e-17 -4.917513e-35)
5.800000e+01	top	(-9.986068e-01 -1.153773e-19 -1.985474e-36)	(-9.986068e-01 -1.153773e-19 -1.985474e-36)
5.900000e+01	bottom	(-9.988518e-01 -3.861114e-17 -3.742831e-35)	(-9.988518e-01 -3.861114e-17 -3.742831e-35)
5.900000e+01	top	(-9.989033e-01 -9.370685e-20 -2.000889e-36)	(-9.989033e-01 -9.370685e-20 -2.000889e-36)
6.000000e+01	bottom	(-9.990050e-01 -3.917332e-17 -6.122255e-35)	(-9.990050e-01 -3.917332e-17 -6.122255e-35)
6.000000e+01	top	(-9.990721e-01 -1.158603e-19 -2.015092e-36)	(-9.990721e-01 -1.158603e-19 -2.015092e-36)
6.100000e+01	bottom	(-9.990337e-01 -4.063595e-17 -4.916727e-35)	(-9.990337e-01 -4.063595e-17 -4.916727e-35)
6.100000e+01	top	(-9.991862e-01 -1.079963e-19 -2.028331e-36)	(-9.991862e-01 -1.079963e-19 -2.028331e-36)
6.200000e+01	bottom	(-9.990479e-01 -3.908957e-17 -6.565599e-35)	(-9.990479e-01 -3.908957e-17 -6.565599e-35)
6.200000e+01	top	(-9.989375e-01 -9.809038e-20 -2.040111e-36)	(-9.989375e-01 -9.809038e-20 -2.040111e-36)
6.300000e+01	bottom	(-9.990865e-01 -4.077964e-17 -7.193927e-36)	(-9.990865e-01 -4.077964e-17 -7.193927e-36)
6.300000e+01	top	(-9.990063e-01 -1.144788e-19 -2.052023e-36)	(-9.990063e-01 -1.144788e-19 -2.052023e-36)
6.400000e+01	bottom	(-9.991255e-01 -3.828338e-17 -3.753407e-35)	(-9.991255e-01 -3.828338e-17 -3.753407e-35)
6.400000e+01	top	(-9.990584e-01 -1.047690e-19 -2.063402e-36)	(-9.990584e-01 -1.047690e-19 -2.063402e-36)
6.500000e+01	bottom	(-9.991791e-01 -3.695437e-17 -6.573593e-35)	(-9.991791e-01 -3.695437e-17 -6.573593e-35)
6.500000e+01	top	(-9.991434e-01 -1.041967e-19 -2.074365e-36)	(-9.991434e-01 -1.041967e-19 -2.074365e-36)
6.600000e+01	bottom	(-9.992529e-01 -4.218242e-17 -2.817808e-35)	(-9.992529e-01 -4.218242e-17 -2.817808e-35)
6.600000e+01	top	(-9.992585e-01 -1.126361e-19 -2.084885e-36)	(-9.992585e-01 -1.126361e-19 -2.084885e-36)
6.700000e+01	bottom	(-9.994297e-01 -4.044142e-17 -3.210134e-35)	(-9.994297e-01 -4.044142e-17 -3.210134e-35)
6.700000e+01	top	(-9.994799e-01 -1.158677e-19 -2.095248e-36)	(-9.994799e-01 -1.158677e-19 -2.095248e-36)
6.800000e+01	bottom	(-9.994148e-01 -4.530461e-17 -5.892497e-35)	(-9.994148e-01 -4.530461e-17 -5.892497e-35)
6.800000e+01	top	(-9.995013e-01 -1.092564e-19 -2.104916e-36)	(-9.995013e-01 -1.092564e-19 -2.104916e-36)
6.900000e+01	bottom	(-9.994458e-01 -4.164219e-17 -5.936016e-35)	(-9.994458e-01 -4.164219e-17 -5.936016e-35)
6.900000e+01	top	(-9.995203e-01 -1.171696e-19 -2.114220e-36)	(-9.995203e-01 -1.171696e-19 -2.114220e-36)
7.000000e+01	bottom	(-9.994646e-01 -4.249679e-17 -1.809697e-35)	(-9.994646e-01 -4.249679e-17 -1.809697e-35)
7.000000e+01	top	(-9.995306e-01 -1.148563e-19 -2.123237e-36)	(-9.995306e-01 -1.148563e-19 -2.123237e-36)
7.100000e+01	bottom	(-9.994948e-01 -3.807455e-17 -7.376051e-35)	(-9.994948e-01 -3.807455e-17 -7.376051e-35)
7.100000e+01	top	(-9.995497e-01 -9.855620e-20 -2.132726e-36)	(-9.995497e-01 -9.855620e-20 -2.132726e-36)
7.200000e+01	bottom	(-9.995300e-01 -3.673718e-17 -6.417424e-35)	(-9.995300e-01 -3.673718e-17 -6.417424e-35)
7.200000e+01	top	(-9.995736e-01 -1.018387e-19 -2.143595e-36)	(-9.995736e-01 -1.018387e-19 -2.143595e-36)
7.300000e+01	bottom	(-9.995689e-01 -3.735090e-17 -1.185911e-35)	(-9.995689e-01 -3.735090e-17 -1.185911e-35)
7.300000e+01	top	(-9.996009e-01 -1.127878e-19 -2.155851e-36)	(-9.996009e-01 -1.127878e-19 -2.155851e-36)
7.400000e+01	bottom	(-9.996513e-01 -3.944097e-17 -5.748201e-35)	(-9.996513e-01 -3.944097e-17 -5.748201e-35)
7.400000e+01	top	(-9.996540e-01 -1.163233e-19 -2.168886e-36)	(-9.996540e-01 -1.163233e-19 -2.168886e-36)
7.500000e+01	bottom	(-9.997815e-01 -4.066300e-17 -4.105095e-35)	(-9.997815e-01 -4.066300e-17 -4.105095e-35)
7.500000e+01	top	(-9.997451e-01 -1.108264e-19 -2.181824e-36)	(-9.997451e-01 -1.108264e-19 -2.181824e-36)
7.600000e+01	bottom	(-9.996874e-01 -4.185488e-17 -5.722222e-35)	(-9.996874e-01 -4.185488e-17 -5.722222e-35)
7.600000e+01	top	(-9.996453e-01 -1.086830e-19 -2.193469e-36)	(-9.996453e-01 -1.086830e-19 -2.193469e-36)
7.700000e+01	bottom	(-9.997471e-01 -3.847848e-17 -5.500476e-35)	(-9.997471e-01 -3.847848e-17 -5.500476e-35)
7.700000e+01	top	(-9.997042e-01 -1.059433e-19 -2.204696e-36)	(-9.997042e-01 -1.059433e-19 -2.204696e-36)
7.800000e+01	bottom	(-9.997574e-01 -3.806312e-17 -3.049518e-36)	(-9.997574e-01 -3.806312e-17 -3.049518e-36)
7.800000e+01	top	(-9.997210e-01 -1.000271e-19 -2.215024e-36)	(-9.997210e-01 -1.000271e-19 -2.215024e-36)
7.900000e+01	bottom	(-9.997651e-01 -3.812857e-17 -2.645052e-35)	(-9.997651e-01 -3.812857e-17 -2.645052e-35)
7.900000e+01	top	(-9.997337e-01 -1.130810e-19 -2.224488e-36)	(-9.997337e-01 -1.130810e-19 -2.224488e-36)
8.000000e+01	bottom	(-9.997704e-01 -3.926294e-17 -4.569799e-35)	(-9.997704e-01 -3.926294e-17 -4.569799e-35)
8.000000e+01	top	(-9.997430e-01 -1.083037e-19 -2.233230e-36)	(-9.997430e-01 -1.083037e-19 -2.233230e-36)
8.100000e+01	bottom	(-9.997758e-01 -3.660692e-17 -1.454303e-35)	(-9.997758e-01 -3.660692e-17 -1.454303e-35)
8.100000e+01	top	(-9.997513e-01 -1.024331e-19 -2.241302e-36)	(-9.997513e-01 -1.024331e-19 -2.241302e-36)
8.200000e+01	bottom	(-9.997810e-01 -4.007198e-17 -2.294298e-35)	(-9.997810e-01 -4.007198e-17 -2.294298e-35)
8.200000e+01	top	(-9.997586e-01 -1.149834e-19 -2.248641e-36)	(-9.997586e-01 -1.149834e-19 -2.248641e-36)
8.300000e+01	bottom	(-9.997851e-01 -4.164552e-17 -1.292420e-35)	(-9.997851e-01 -4.164552e-17 -1.292420e-35)
8.300000e+01	top	(-9.997641e-01 -1.047900e-19 -2.255101e-36)	(-9.997641e-01 -1.047900e-19 -2.255101e-36)
8.400000e+01	bottom	(-9.997903e-01 -4.087076e-17 -4.119366e-35)	(-9.997903e-01 -4.087076e-17 -4.119366e-35)
8.400000e+01	top	(-9.997706e-01 -1.159107e-19 -2.260674e-36)	(-9.997706e-01 -1.159107e-19 -2.260674e-36)
8.500000e+01	bottom	(-9.997944e-01 -3.747175e-17 -2.259976e-35)	(-9.997944e-01 -3.747175e-17 -2.259976e-35)
8.500000e+01	top	(-9.997754e-01 -1.109821e-19 -2.265550e-36)	(-9.997754e-01 -1.109821e-19 -2.265550e-36)
8.600000e+01	bottom	(-9.998038e-01 -3.831007e-17 -4.374021e-36)	(-9.998038e-01 -3.831007e-17 -4.374021e-36)
8.600000e+01	top	(-9.997881e-01 -2.306130e-20 -2.270296e-36)	(-9.997881e-01 -2.306130e-20 -2.270296e-36)
8.700000e+01	bottom	(-9.998132e-01 -4.175430e-17 -5.135432e-35)	(-9.998132e-01 -4.175430e-17 -5.135432e-35)
8.700000e+01	top	(-9.997998e-01 -1.168509e-19 -2.275610e-36)	(-9.997998e-01 -1.168509e-19 -2.275610e-36)
8.800000e+01	bottom	(-9.998223e-01 -4.167788e-17 -4.037769e-35)	(-9.998223e-01 -4.167788e-17 -4.037769e-35)
8.800000e+01	top	(-9.998111e-01 -1.142116e-19 -2.281592e-36)	(-9.998111e-01 -1.142116e-19 -2.281592e-36)
8.900000e+01	bottom	(-9.998314e-01 -3.660857e-17 -2.525446e-35)	(-9.998314e-01 -3.660857e-17 -2.525446e-35)
8.900000e+01	top	(-9.998224e-01 -1.116995e-19 -2.287868e-36)	(-9.998224e-01 -1.116995e-19 -2.287868e-36)
9.000000e+01	bottom	(-9.998435e-01 -4.286991e-17 -4.375129e-35)	(-9.998435e-01 -4.286991e-17 -4.375129e-35)
9.000000e+01	top	(-9.998379e-01 -1.085905e-19 -2.294016e-36)	(-9.998379e-01 -1.085905e-19 -2.294016e-36)
9.100000e+01	bottom	(-9.998581e-01 -4.185857e-17 -1.699014e-35)	(-9.998581e-01 -4.185857e-17 -1.699014e-35)
9.100000e+01	top	(-9.998559e-01 -1.159414e-19 -2.299803e-36)	(-9.998559e-01 -1.159414e-19 -2.299803e-36)
9.200000e+01	bottom	(-9.998954e-01 -3.831726e-17 -2.833675e-35)	(-9.998954e-01 -3.831726e-17 -2.833675e-35)
9.200000e+01	top	(-9.999106e-01 -1.005139e-19 -2.305491e-36)	(-9.999106e-01 -1.005139e-19 -2.305491e-36)
9.300000e+01	bottom	(-9.999550e-01 -3.757615e-17 -4.307580e-36)	(-9.999550e-01 -3.757615e-17 -4.307580e-36)
9.300000e+01	top	(-9.999994e-01 -1.143976e-19 -2.311503e-36)	(-9.999994e-01 -1.143976e-19 -2.311503e-36)
9.400000e+01	bottom	(-9.999601e-01 -3.643947e-17 -1.370989e-35)	(-9.999601e-01 -3.643947e-17 -1.370989e-35)
9.400000e+01	top	(-9.999961e-01 -1.110123e-19 -2.317439e-36)	(-9.999961e-01 -1.110123e-19 -2.317439e-36)
9.500000e+01	bottom	(-1.000091e+00 -4.067414e-17 -4.889040e-35)	(-1.000091e+00 -4.067414e-17 -4.889040e-35)
9.500000e+01	top	(-9.997607e-01 -1.167456e-19 -2.322427e-36)	(-9.997607e-01 -1.167456e-19 -2.322427e-36)
9.600000e+01	bottom	(-1.000104e+00 -3.826984e-17 -2.720402e-35)	(-1.000104e+00 -3.826984e-17 -2.720402e-35)
9.600000e+01	top	(-9.999454e-01 -1.103376e-19 -2.327344e-36)	(-9.999454e-01 -1.103376e-19 -2.327344e-36)
9.700000e+01	bottom	(-1.000030e+00 -3.812599e-17 -3.285852e-35)	(-1.000030e+00 -3.812599e-17 -3.285852e-35)
9.700000e+01	top	(-9.999864e-01 -1.070295e-19 -2.330559e-36)	(-9.999864e-01 -1.070295e-19 -2.330559e-36)
9.800000e+01	bottom	(-1.000023e+00 -3.716498e-17 -1.452688e-35)	(-1.000023e+00 -3.716498e-17 -1.452688e-35)
9.800000e+01	top	(-9.999803e-01 -9.694446e-20 -2.332445e-36)	(-9.999803e-01 -9.694446e-20 -2.332445e-36)
9.900000e+01	bottom	(-1.000019e+00 -3.642931e-17 -5.910658e-35)	(-1.000019e+00 -3.642931e-17 -5.910658e-35)
9.900000e+01	top	(-9.999782e-01 -1.029254e-19 -2.333215e-36)	(-9.999782e-01 -1.029254e-19 -2.333215e-36)
1.000000e+02	bottom	(-1.000017e+00 -4.008407e-17 -1.642559e-35)	(-1.000017e+00 -4.008407e-17 -1.642559e-35)
1.000000e+02	top	(-9.999777e-01 -1.015579e-19 -2.333101e-36)	(-9.999777e-01 -1.015579e-19 -2.333101e-36)
