/*--------------------------------*- C++ -*----------------------------------*\
  =========                 |
  \\      /  F ield         | OpenFOAM: The Open Source CFD Toolbox
   \\    /   O peration     | Website:  https://openfoam.org
    \\  /    A nd           | Version:  9
     \\/     M anipulation  |
\*---------------------------------------------------------------------------*/
FoamFile
{
    format      ascii;
    class       volVectorField;
    location    "100";
    object      C;
}
// * * * * * * * * * * * * * * * * * * * * * * * * * * * * * * * * * * * * * //

dimensions      [0 1 0 0 0 0 0];

internalField   nonuniform List<vector> 
180
(
(0.5 0.00133491 0.5)
(0.5 0.00405446 0.5)
(0.5 0.00687533 0.5)
(0.5 0.00980129 0.5)
(0.5 0.0128363 0.5)
(0.5 0.0159843 0.5)
(0.5 0.0192496 0.5)
(0.5 0.0226366 0.5)
(0.5 0.0261497 0.5)
(0.5 0.0297938 0.5)
(0.5 0.0335736 0.5)
(0.5 0.0374942 0.5)
(0.5 0.0415609 0.5)
(0.5 0.0457791 0.5)
(0.5 0.0501544 0.5)
(0.5 0.0546927 0.5)
(0.5 0.0594002 0.5)
(0.5 0.0642829 0.5)
(0.5 0.0693476 0.5)
(0.5 0.074601 0.5)
(0.5 0.0800501 0.5)
(0.5 0.0857023 0.5)
(0.5 0.0915649 0.5)
(0.5 0.0976461 0.5)
(0.5 0.103954 0.5)
(0.5 0.110496 0.5)
(0.5 0.117283 0.5)
(0.5 0.124322 0.5)
(0.5 0.131623 0.5)
(0.5 0.139197 0.5)
(0.5 0.147053 0.5)
(0.5 0.155201 0.5)
(0.5 0.163653 0.5)
(0.5 0.17242 0.5)
(0.5 0.181513 0.5)
(0.5 0.190945 0.5)
(0.5 0.200729 0.5)
(0.5 0.210877 0.5)
(0.5 0.221403 0.5)
(0.5 0.232321 0.5)
(0.5 0.243646 0.5)
(0.5 0.255393 0.5)
(0.5 0.267578 0.5)
(0.5 0.280216 0.5)
(0.5 0.293325 0.5)
(0.5 0.307778 0.5)
(0.5 0.323333 0.5)
(0.5 0.338889 0.5)
(0.5 0.354444 0.5)
(0.5 0.37 0.5)
(0.5 0.385556 0.5)
(0.5 0.401111 0.5)
(0.5 0.416667 0.5)
(0.5 0.432222 0.5)
(0.5 0.447778 0.5)
(0.5 0.463333 0.5)
(0.5 0.478889 0.5)
(0.5 0.494444 0.5)
(0.5 0.51 0.5)
(0.5 0.525556 0.5)
(0.5 0.541111 0.5)
(0.5 0.556667 0.5)
(0.5 0.572222 0.5)
(0.5 0.587778 0.5)
(0.5 0.603333 0.5)
(0.5 0.618889 0.5)
(0.5 0.634444 0.5)
(0.5 0.65 0.5)
(0.5 0.665556 0.5)
(0.5 0.681111 0.5)
(0.5 0.696667 0.5)
(0.5 0.712222 0.5)
(0.5 0.727778 0.5)
(0.5 0.743333 0.5)
(0.5 0.758889 0.5)
(0.5 0.774444 0.5)
(0.5 0.79 0.5)
(0.5 0.805556 0.5)
(0.5 0.821111 0.5)
(0.5 0.836667 0.5)
(0.5 0.852222 0.5)
(0.5 0.867778 0.5)
(0.5 0.883333 0.5)
(0.5 0.898889 0.5)
(0.5 0.914444 0.5)
(0.5 0.93 0.5)
(0.5 0.945556 0.5)
(0.5 0.961111 0.5)
(0.5 0.976667 0.5)
(0.5 0.992222 0.5)
(0.5 1.00778 0.5)
(0.5 1.02333 0.5)
(0.5 1.03889 0.5)
(0.5 1.05444 0.5)
(0.5 1.07 0.5)
(0.5 1.08556 0.5)
(0.5 1.10111 0.5)
(0.5 1.11667 0.5)
(0.5 1.13222 0.5)
(0.5 1.14778 0.5)
(0.5 1.16333 0.5)
(0.5 1.17889 0.5)
(0.5 1.19444 0.5)
(0.5 1.21 0.5)
(0.5 1.22556 0.5)
(0.5 1.24111 0.5)
(0.5 1.25667 0.5)
(0.5 1.27222 0.5)
(0.5 1.28778 0.5)
(0.5 1.30333 0.5)
(0.5 1.31889 0.5)
(0.5 1.33444 0.5)
(0.5 1.35 0.5)
(0.5 1.36556 0.5)
(0.5 1.38111 0.5)
(0.5 1.39667 0.5)
(0.5 1.41222 0.5)
(0.5 1.42778 0.5)
(0.5 1.44333 0.5)
(0.5 1.45889 0.5)
(0.5 1.47444 0.5)
(0.5 1.49 0.5)
(0.5 1.50556 0.5)
(0.5 1.52111 0.5)
(0.5 1.53667 0.5)
(0.5 1.55222 0.5)
(0.5 1.56778 0.5)
(0.5 1.58333 0.5)
(0.5 1.59889 0.5)
(0.5 1.61444 0.5)
(0.5 1.63 0.5)
(0.5 1.64556 0.5)
(0.5 1.66111 0.5)
(0.5 1.67667 0.5)
(0.5 1.69222 0.5)
(0.5 1.70667 0.5)
(0.5 1.71978 0.5)
(0.5 1.73242 0.5)
(0.5 1.74461 0.5)
(0.5 1.75635 0.5)
(0.5 1.76768 0.5)
(0.5 1.7786 0.5)
(0.5 1.78912 0.5)
(0.5 1.79927 0.5)
(0.5 1.80905 0.5)
(0.5 1.81849 0.5)
(0.5 1.82758 0.5)
(0.5 1.83635 0.5)
(0.5 1.8448 0.5)
(0.5 1.85295 0.5)
(0.5 1.8608 0.5)
(0.5 1.86838 0.5)
(0.5 1.87568 0.5)
(0.5 1.88272 0.5)
(0.5 1.8895 0.5)
(0.5 1.89605 0.5)
(0.5 1.90235 0.5)
(0.5 1.90844 0.5)
(0.5 1.9143 0.5)
(0.5 1.91995 0.5)
(0.5 1.9254 0.5)
(0.5 1.93065 0.5)
(0.5 1.93572 0.5)
(0.5 1.9406 0.5)
(0.5 1.94531 0.5)
(0.5 1.94985 0.5)
(0.5 1.95422 0.5)
(0.5 1.95844 0.5)
(0.5 1.96251 0.5)
(0.5 1.96643 0.5)
(0.5 1.97021 0.5)
(0.5 1.97385 0.5)
(0.5 1.97736 0.5)
(0.5 1.98075 0.5)
(0.5 1.98402 0.5)
(0.5 1.98716 0.5)
(0.5 1.9902 0.5)
(0.5 1.99312 0.5)
(0.5 1.99595 0.5)
(0.5 1.99867 0.5)
)
;

boundaryField
{
    inlet
    {
        type            cyclic;
    }
    outlet
    {
        type            cyclic;
    }
    bottom
    {
        type            calculated;
        value           uniform (0.5 0 0.5);
    }
    top
    {
        type            calculated;
        value           uniform (0.5 2 0.5);
    }
    front
    {
        type            cyclic;
    }
    Back
    {
        type            cyclic;
    }
}


// ************************************************************************* //
