/*--------------------------------*- C++ -*----------------------------------*\
  =========                 |
  \\      /  F ield         | OpenFOAM: The Open Source CFD Toolbox
   \\    /   O peration     | Website:  https://openfoam.org
    \\  /    A nd           | Version:  9
     \\/     M anipulation  |
\*---------------------------------------------------------------------------*/
FoamFile
{
    format      ascii;
    class       volScalarField;
    location    "100";
    object      nut;
}
// * * * * * * * * * * * * * * * * * * * * * * * * * * * * * * * * * * * * * //

dimensions      [0 2 -1 0 0 0 0];

internalField   nonuniform List<scalar> 
180
(
1.08055e-08
7.4504e-07
5.05656e-06
2.09992e-05
7.31e-05
0.000230124
0.000593578
0.00118975
0.00197473
0.0029144
0.00398861
0.00518218
0.00648152
0.00787377
0.00934699
0.0108904
0.0124947
0.0141519
0.0158553
0.0175994
0.0193798
0.0211924
0.0230341
0.024902
0.0267935
0.0287064
0.0306385
0.0325877
0.0345519
0.0365289
0.0385167
0.0405128
0.0425149
0.0445205
0.0465269
0.0485311
0.0505301
0.0525205
0.0544988
0.0564613
0.058404
0.0603225
0.0622126
0.0640694
0.065888
0.0677842
0.0696711
0.0714229
0.0730457
0.0745456
0.0759283
0.0771997
0.0783653
0.0794309
0.0804022
0.0812847
0.0820842
0.0828066
0.0834576
0.0840433
0.0845698
0.0850432
0.08547
0.0858564
0.0862089
0.0865341
0.0868384
0.0871282
0.0874098
0.0876891
0.0879717
0.0882627
0.0885664
0.0888863
0.089225
0.0895836
0.0899622
0.0903591
0.0907712
0.0911938
0.0916207
0.0920443
0.0924558
0.0928456
0.0932038
0.0935206
0.0937867
0.0939938
0.0941355
0.0942072
0.0942063
0.094133
0.0939897
0.093781
0.0935136
0.0931955
0.0928362
0.0924456
0.0920334
0.0916095
0.0911824
0.0907598
0.0903479
0.0899515
0.0895737
0.0892159
0.0888783
0.0885596
0.0882572
0.0879676
0.0876865
0.0874087
0.0871287
0.0868404
0.0865376
0.086214
0.0858628
0.0854778
0.0850523
0.08458
0.0840545
0.0834696
0.0828192
0.0820973
0.081298
0.0804156
0.0794442
0.0783783
0.0772121
0.07594
0.0745564
0.0730555
0.0714315
0.0696785
0.0677903
0.0658928
0.064073
0.062215
0.0603239
0.0584043
0.0564608
0.0544975
0.0525185
0.0505276
0.0485282
0.0465237
0.0445172
0.0425115
0.0405093
0.0385133
0.0365257
0.0345489
0.032585
0.030636
0.0287042
0.0267915
0.0249001
0.0230324
0.0211909
0.0193783
0.0175981
0.0158539
0.0141505
0.0124934
0.0108892
0.00934578
0.00787264
0.00648048
0.00518126
0.0039878
0.0029137
0.00197413
0.00118925
0.00059321
0.000229929
7.30305e-05
2.09795e-05
5.05185e-06
7.44338e-07
1.07947e-08
)
;

boundaryField
{
    inlet
    {
        type            cyclic;
    }
    outlet
    {
        type            cyclic;
    }
    bottom
    {
        type            fixedValue;
        value           uniform 0;
    }
    top
    {
        type            fixedValue;
        value           uniform 0;
    }
    front
    {
        type            cyclic;
    }
    Back
    {
        type            cyclic;
    }
}


// ************************************************************************* //
