/*--------------------------------*- C++ -*----------------------------------*\
  =========                 |
  \\      /  F ield         | OpenFOAM: The Open Source CFD Toolbox
   \\    /   O peration     | Website:  https://openfoam.org
    \\  /    A nd           | Version:  9
     \\/     M anipulation  |
\*---------------------------------------------------------------------------*/
FoamFile
{
    format      ascii;
    class       volVectorField;
    location    "0";
    object      C;
}
// * * * * * * * * * * * * * * * * * * * * * * * * * * * * * * * * * * * * * //

dimensions      [0 1 0 0 0 0 0];

internalField   nonuniform List<vector> 
1000
(
(0.025 0.02 0.05)
(0.075 0.02 0.05)
(0.125 0.02 0.05)
(0.175 0.02 0.05)
(0.225 0.02 0.05)
(0.275 0.02 0.05)
(0.325 0.02 0.05)
(0.375 0.02 0.05)
(0.425 0.02 0.05)
(0.475 0.02 0.05)
(0.525 0.02 0.05)
(0.575 0.02 0.05)
(0.625 0.02 0.05)
(0.675 0.02 0.05)
(0.725 0.02 0.05)
(0.775 0.02 0.05)
(0.825 0.02 0.05)
(0.875 0.02 0.05)
(0.925 0.02 0.05)
(0.975 0.02 0.05)
(0.025 0.06 0.05)
(0.075 0.06 0.05)
(0.125 0.06 0.05)
(0.175 0.06 0.05)
(0.225 0.06 0.05)
(0.275 0.06 0.05)
(0.325 0.06 0.05)
(0.375 0.06 0.05)
(0.425 0.06 0.05)
(0.475 0.06 0.05)
(0.525 0.06 0.05)
(0.575 0.06 0.05)
(0.625 0.06 0.05)
(0.675 0.06 0.05)
(0.725 0.06 0.05)
(0.775 0.06 0.05)
(0.825 0.06 0.05)
(0.875 0.06 0.05)
(0.925 0.06 0.05)
(0.975 0.06 0.05)
(0.025 0.1 0.05)
(0.075 0.1 0.05)
(0.125 0.1 0.05)
(0.175 0.1 0.05)
(0.225 0.1 0.05)
(0.275 0.1 0.05)
(0.325 0.1 0.05)
(0.375 0.1 0.05)
(0.425 0.1 0.05)
(0.475 0.1 0.05)
(0.525 0.1 0.05)
(0.575 0.1 0.05)
(0.625 0.1 0.05)
(0.675 0.1 0.05)
(0.725 0.1 0.05)
(0.775 0.1 0.05)
(0.825 0.1 0.05)
(0.875 0.1 0.05)
(0.925 0.1 0.05)
(0.975 0.1 0.05)
(0.025 0.14 0.05)
(0.075 0.14 0.05)
(0.125 0.14 0.05)
(0.175 0.14 0.05)
(0.225 0.14 0.05)
(0.275 0.14 0.05)
(0.325 0.14 0.05)
(0.375 0.14 0.05)
(0.425 0.14 0.05)
(0.475 0.14 0.05)
(0.525 0.14 0.05)
(0.575 0.14 0.05)
(0.625 0.14 0.05)
(0.675 0.14 0.05)
(0.725 0.14 0.05)
(0.775 0.14 0.05)
(0.825 0.14 0.05)
(0.875 0.14 0.05)
(0.925 0.14 0.05)
(0.975 0.14 0.05)
(0.025 0.18 0.05)
(0.075 0.18 0.05)
(0.125 0.18 0.05)
(0.175 0.18 0.05)
(0.225 0.18 0.05)
(0.275 0.18 0.05)
(0.325 0.18 0.05)
(0.375 0.18 0.05)
(0.425 0.18 0.05)
(0.475 0.18 0.05)
(0.525 0.18 0.05)
(0.575 0.18 0.05)
(0.625 0.18 0.05)
(0.675 0.18 0.05)
(0.725 0.18 0.05)
(0.775 0.18 0.05)
(0.825 0.18 0.05)
(0.875 0.18 0.05)
(0.925 0.18 0.05)
(0.975 0.18 0.05)
(0.025 0.22 0.05)
(0.075 0.22 0.05)
(0.125 0.22 0.05)
(0.175 0.22 0.05)
(0.225 0.22 0.05)
(0.275 0.22 0.05)
(0.325 0.22 0.05)
(0.375 0.22 0.05)
(0.425 0.22 0.05)
(0.475 0.22 0.05)
(0.525 0.22 0.05)
(0.575 0.22 0.05)
(0.625 0.22 0.05)
(0.675 0.22 0.05)
(0.725 0.22 0.05)
(0.775 0.22 0.05)
(0.825 0.22 0.05)
(0.875 0.22 0.05)
(0.925 0.22 0.05)
(0.975 0.22 0.05)
(0.025 0.26 0.05)
(0.075 0.26 0.05)
(0.125 0.26 0.05)
(0.175 0.26 0.05)
(0.225 0.26 0.05)
(0.275 0.26 0.05)
(0.325 0.26 0.05)
(0.375 0.26 0.05)
(0.425 0.26 0.05)
(0.475 0.26 0.05)
(0.525 0.26 0.05)
(0.575 0.26 0.05)
(0.625 0.26 0.05)
(0.675 0.26 0.05)
(0.725 0.26 0.05)
(0.775 0.26 0.05)
(0.825 0.26 0.05)
(0.875 0.26 0.05)
(0.925 0.26 0.05)
(0.975 0.26 0.05)
(0.025 0.3 0.05)
(0.075 0.3 0.05)
(0.125 0.3 0.05)
(0.175 0.3 0.05)
(0.225 0.3 0.05)
(0.275 0.3 0.05)
(0.325 0.3 0.05)
(0.375 0.3 0.05)
(0.425 0.3 0.05)
(0.475 0.3 0.05)
(0.525 0.3 0.05)
(0.575 0.3 0.05)
(0.625 0.3 0.05)
(0.675 0.3 0.05)
(0.725 0.3 0.05)
(0.775 0.3 0.05)
(0.825 0.3 0.05)
(0.875 0.3 0.05)
(0.925 0.3 0.05)
(0.975 0.3 0.05)
(0.025 0.34 0.05)
(0.075 0.34 0.05)
(0.125 0.34 0.05)
(0.175 0.34 0.05)
(0.225 0.34 0.05)
(0.275 0.34 0.05)
(0.325 0.34 0.05)
(0.375 0.34 0.05)
(0.425 0.34 0.05)
(0.475 0.34 0.05)
(0.525 0.34 0.05)
(0.575 0.34 0.05)
(0.625 0.34 0.05)
(0.675 0.34 0.05)
(0.725 0.34 0.05)
(0.775 0.34 0.05)
(0.825 0.34 0.05)
(0.875 0.34 0.05)
(0.925 0.34 0.05)
(0.975 0.34 0.05)
(0.025 0.38 0.05)
(0.075 0.38 0.05)
(0.125 0.38 0.05)
(0.175 0.38 0.05)
(0.225 0.38 0.05)
(0.275 0.38 0.05)
(0.325 0.38 0.05)
(0.375 0.38 0.05)
(0.425 0.38 0.05)
(0.475 0.38 0.05)
(0.525 0.38 0.05)
(0.575 0.38 0.05)
(0.625 0.38 0.05)
(0.675 0.38 0.05)
(0.725 0.38 0.05)
(0.775 0.38 0.05)
(0.825 0.38 0.05)
(0.875 0.38 0.05)
(0.925 0.38 0.05)
(0.975 0.38 0.05)
(0.025 0.42 0.05)
(0.075 0.42 0.05)
(0.125 0.42 0.05)
(0.175 0.42 0.05)
(0.225 0.42 0.05)
(0.275 0.42 0.05)
(0.325 0.42 0.05)
(0.375 0.42 0.05)
(0.425 0.42 0.05)
(0.475 0.42 0.05)
(0.525 0.42 0.05)
(0.575 0.42 0.05)
(0.625 0.42 0.05)
(0.675 0.42 0.05)
(0.725 0.42 0.05)
(0.775 0.42 0.05)
(0.825 0.42 0.05)
(0.875 0.42 0.05)
(0.925 0.42 0.05)
(0.975 0.42 0.05)
(0.025 0.46 0.05)
(0.075 0.46 0.05)
(0.125 0.46 0.05)
(0.175 0.46 0.05)
(0.225 0.46 0.05)
(0.275 0.46 0.05)
(0.325 0.46 0.05)
(0.375 0.46 0.05)
(0.425 0.46 0.05)
(0.475 0.46 0.05)
(0.525 0.46 0.05)
(0.575 0.46 0.05)
(0.625 0.46 0.05)
(0.675 0.46 0.05)
(0.725 0.46 0.05)
(0.775 0.46 0.05)
(0.825 0.46 0.05)
(0.875 0.46 0.05)
(0.925 0.46 0.05)
(0.975 0.46 0.05)
(0.025 0.5 0.05)
(0.075 0.5 0.05)
(0.125 0.5 0.05)
(0.175 0.5 0.05)
(0.225 0.5 0.05)
(0.275 0.5 0.05)
(0.325 0.5 0.05)
(0.375 0.5 0.05)
(0.425 0.5 0.05)
(0.475 0.5 0.05)
(0.525 0.5 0.05)
(0.575 0.5 0.05)
(0.625 0.5 0.05)
(0.675 0.5 0.05)
(0.725 0.5 0.05)
(0.775 0.5 0.05)
(0.825 0.5 0.05)
(0.875 0.5 0.05)
(0.925 0.5 0.05)
(0.975 0.5 0.05)
(0.025 0.54 0.05)
(0.075 0.54 0.05)
(0.125 0.54 0.05)
(0.175 0.54 0.05)
(0.225 0.54 0.05)
(0.275 0.54 0.05)
(0.325 0.54 0.05)
(0.375 0.54 0.05)
(0.425 0.54 0.05)
(0.475 0.54 0.05)
(0.525 0.54 0.05)
(0.575 0.54 0.05)
(0.625 0.54 0.05)
(0.675 0.54 0.05)
(0.725 0.54 0.05)
(0.775 0.54 0.05)
(0.825 0.54 0.05)
(0.875 0.54 0.05)
(0.925 0.54 0.05)
(0.975 0.54 0.05)
(0.025 0.58 0.05)
(0.075 0.58 0.05)
(0.125 0.58 0.05)
(0.175 0.58 0.05)
(0.225 0.58 0.05)
(0.275 0.58 0.05)
(0.325 0.58 0.05)
(0.375 0.58 0.05)
(0.425 0.58 0.05)
(0.475 0.58 0.05)
(0.525 0.58 0.05)
(0.575 0.58 0.05)
(0.625 0.58 0.05)
(0.675 0.58 0.05)
(0.725 0.58 0.05)
(0.775 0.58 0.05)
(0.825 0.58 0.05)
(0.875 0.58 0.05)
(0.925 0.58 0.05)
(0.975 0.58 0.05)
(0.025 0.62 0.05)
(0.075 0.62 0.05)
(0.125 0.62 0.05)
(0.175 0.62 0.05)
(0.225 0.62 0.05)
(0.275 0.62 0.05)
(0.325 0.62 0.05)
(0.375 0.62 0.05)
(0.425 0.62 0.05)
(0.475 0.62 0.05)
(0.525 0.62 0.05)
(0.575 0.62 0.05)
(0.625 0.62 0.05)
(0.675 0.62 0.05)
(0.725 0.62 0.05)
(0.775 0.62 0.05)
(0.825 0.62 0.05)
(0.875 0.62 0.05)
(0.925 0.62 0.05)
(0.975 0.62 0.05)
(0.025 0.66 0.05)
(0.075 0.66 0.05)
(0.125 0.66 0.05)
(0.175 0.66 0.05)
(0.225 0.66 0.05)
(0.275 0.66 0.05)
(0.325 0.66 0.05)
(0.375 0.66 0.05)
(0.425 0.66 0.05)
(0.475 0.66 0.05)
(0.525 0.66 0.05)
(0.575 0.66 0.05)
(0.625 0.66 0.05)
(0.675 0.66 0.05)
(0.725 0.66 0.05)
(0.775 0.66 0.05)
(0.825 0.66 0.05)
(0.875 0.66 0.05)
(0.925 0.66 0.05)
(0.975 0.66 0.05)
(0.025 0.7 0.05)
(0.075 0.7 0.05)
(0.125 0.7 0.05)
(0.175 0.7 0.05)
(0.225 0.7 0.05)
(0.275 0.7 0.05)
(0.325 0.7 0.05)
(0.375 0.7 0.05)
(0.425 0.7 0.05)
(0.475 0.7 0.05)
(0.525 0.7 0.05)
(0.575 0.7 0.05)
(0.625 0.7 0.05)
(0.675 0.7 0.05)
(0.725 0.7 0.05)
(0.775 0.7 0.05)
(0.825 0.7 0.05)
(0.875 0.7 0.05)
(0.925 0.7 0.05)
(0.975 0.7 0.05)
(0.025 0.74 0.05)
(0.075 0.74 0.05)
(0.125 0.74 0.05)
(0.175 0.74 0.05)
(0.225 0.74 0.05)
(0.275 0.74 0.05)
(0.325 0.74 0.05)
(0.375 0.74 0.05)
(0.425 0.74 0.05)
(0.475 0.74 0.05)
(0.525 0.74 0.05)
(0.575 0.74 0.05)
(0.625 0.74 0.05)
(0.675 0.74 0.05)
(0.725 0.74 0.05)
(0.775 0.74 0.05)
(0.825 0.74 0.05)
(0.875 0.74 0.05)
(0.925 0.74 0.05)
(0.975 0.74 0.05)
(0.025 0.78 0.05)
(0.075 0.78 0.05)
(0.125 0.78 0.05)
(0.175 0.78 0.05)
(0.225 0.78 0.05)
(0.275 0.78 0.05)
(0.325 0.78 0.05)
(0.375 0.78 0.05)
(0.425 0.78 0.05)
(0.475 0.78 0.05)
(0.525 0.78 0.05)
(0.575 0.78 0.05)
(0.625 0.78 0.05)
(0.675 0.78 0.05)
(0.725 0.78 0.05)
(0.775 0.78 0.05)
(0.825 0.78 0.05)
(0.875 0.78 0.05)
(0.925 0.78 0.05)
(0.975 0.78 0.05)
(0.025 0.82 0.05)
(0.075 0.82 0.05)
(0.125 0.82 0.05)
(0.175 0.82 0.05)
(0.225 0.82 0.05)
(0.275 0.82 0.05)
(0.325 0.82 0.05)
(0.375 0.82 0.05)
(0.425 0.82 0.05)
(0.475 0.82 0.05)
(0.525 0.82 0.05)
(0.575 0.82 0.05)
(0.625 0.82 0.05)
(0.675 0.82 0.05)
(0.725 0.82 0.05)
(0.775 0.82 0.05)
(0.825 0.82 0.05)
(0.875 0.82 0.05)
(0.925 0.82 0.05)
(0.975 0.82 0.05)
(0.025 0.86 0.05)
(0.075 0.86 0.05)
(0.125 0.86 0.05)
(0.175 0.86 0.05)
(0.225 0.86 0.05)
(0.275 0.86 0.05)
(0.325 0.86 0.05)
(0.375 0.86 0.05)
(0.425 0.86 0.05)
(0.475 0.86 0.05)
(0.525 0.86 0.05)
(0.575 0.86 0.05)
(0.625 0.86 0.05)
(0.675 0.86 0.05)
(0.725 0.86 0.05)
(0.775 0.86 0.05)
(0.825 0.86 0.05)
(0.875 0.86 0.05)
(0.925 0.86 0.05)
(0.975 0.86 0.05)
(0.025 0.9 0.05)
(0.075 0.9 0.05)
(0.125 0.9 0.05)
(0.175 0.9 0.05)
(0.225 0.9 0.05)
(0.275 0.9 0.05)
(0.325 0.9 0.05)
(0.375 0.9 0.05)
(0.425 0.9 0.05)
(0.475 0.9 0.05)
(0.525 0.9 0.05)
(0.575 0.9 0.05)
(0.625 0.9 0.05)
(0.675 0.9 0.05)
(0.725 0.9 0.05)
(0.775 0.9 0.05)
(0.825 0.9 0.05)
(0.875 0.9 0.05)
(0.925 0.9 0.05)
(0.975 0.9 0.05)
(0.025 0.94 0.05)
(0.075 0.94 0.05)
(0.125 0.94 0.05)
(0.175 0.94 0.05)
(0.225 0.94 0.05)
(0.275 0.94 0.05)
(0.325 0.94 0.05)
(0.375 0.94 0.05)
(0.425 0.94 0.05)
(0.475 0.94 0.05)
(0.525 0.94 0.05)
(0.575 0.94 0.05)
(0.625 0.94 0.05)
(0.675 0.94 0.05)
(0.725 0.94 0.05)
(0.775 0.94 0.05)
(0.825 0.94 0.05)
(0.875 0.94 0.05)
(0.925 0.94 0.05)
(0.975 0.94 0.05)
(0.025 0.98 0.05)
(0.075 0.98 0.05)
(0.125 0.98 0.05)
(0.175 0.98 0.05)
(0.225 0.98 0.05)
(0.275 0.98 0.05)
(0.325 0.98 0.05)
(0.375 0.98 0.05)
(0.425 0.98 0.05)
(0.475 0.98 0.05)
(0.525 0.98 0.05)
(0.575 0.98 0.05)
(0.625 0.98 0.05)
(0.675 0.98 0.05)
(0.725 0.98 0.05)
(0.775 0.98 0.05)
(0.825 0.98 0.05)
(0.875 0.98 0.05)
(0.925 0.98 0.05)
(0.975 0.98 0.05)
(0.025 1.02 0.05)
(0.075 1.02 0.05)
(0.125 1.02 0.05)
(0.175 1.02 0.05)
(0.225 1.02 0.05)
(0.275 1.02 0.05)
(0.325 1.02 0.05)
(0.375 1.02 0.05)
(0.425 1.02 0.05)
(0.475 1.02 0.05)
(0.525 1.02 0.05)
(0.575 1.02 0.05)
(0.625 1.02 0.05)
(0.675 1.02 0.05)
(0.725 1.02 0.05)
(0.775 1.02 0.05)
(0.825 1.02 0.05)
(0.875 1.02 0.05)
(0.925 1.02 0.05)
(0.975 1.02 0.05)
(0.025 1.06 0.05)
(0.075 1.06 0.05)
(0.125 1.06 0.05)
(0.175 1.06 0.05)
(0.225 1.06 0.05)
(0.275 1.06 0.05)
(0.325 1.06 0.05)
(0.375 1.06 0.05)
(0.425 1.06 0.05)
(0.475 1.06 0.05)
(0.525 1.06 0.05)
(0.575 1.06 0.05)
(0.625 1.06 0.05)
(0.675 1.06 0.05)
(0.725 1.06 0.05)
(0.775 1.06 0.05)
(0.825 1.06 0.05)
(0.875 1.06 0.05)
(0.925 1.06 0.05)
(0.975 1.06 0.05)
(0.025 1.1 0.05)
(0.075 1.1 0.05)
(0.125 1.1 0.05)
(0.175 1.1 0.05)
(0.225 1.1 0.05)
(0.275 1.1 0.05)
(0.325 1.1 0.05)
(0.375 1.1 0.05)
(0.425 1.1 0.05)
(0.475 1.1 0.05)
(0.525 1.1 0.05)
(0.575 1.1 0.05)
(0.625 1.1 0.05)
(0.675 1.1 0.05)
(0.725 1.1 0.05)
(0.775 1.1 0.05)
(0.825 1.1 0.05)
(0.875 1.1 0.05)
(0.925 1.1 0.05)
(0.975 1.1 0.05)
(0.025 1.14 0.05)
(0.075 1.14 0.05)
(0.125 1.14 0.05)
(0.175 1.14 0.05)
(0.225 1.14 0.05)
(0.275 1.14 0.05)
(0.325 1.14 0.05)
(0.375 1.14 0.05)
(0.425 1.14 0.05)
(0.475 1.14 0.05)
(0.525 1.14 0.05)
(0.575 1.14 0.05)
(0.625 1.14 0.05)
(0.675 1.14 0.05)
(0.725 1.14 0.05)
(0.775 1.14 0.05)
(0.825 1.14 0.05)
(0.875 1.14 0.05)
(0.925 1.14 0.05)
(0.975 1.14 0.05)
(0.025 1.18 0.05)
(0.075 1.18 0.05)
(0.125 1.18 0.05)
(0.175 1.18 0.05)
(0.225 1.18 0.05)
(0.275 1.18 0.05)
(0.325 1.18 0.05)
(0.375 1.18 0.05)
(0.425 1.18 0.05)
(0.475 1.18 0.05)
(0.525 1.18 0.05)
(0.575 1.18 0.05)
(0.625 1.18 0.05)
(0.675 1.18 0.05)
(0.725 1.18 0.05)
(0.775 1.18 0.05)
(0.825 1.18 0.05)
(0.875 1.18 0.05)
(0.925 1.18 0.05)
(0.975 1.18 0.05)
(0.025 1.22 0.05)
(0.075 1.22 0.05)
(0.125 1.22 0.05)
(0.175 1.22 0.05)
(0.225 1.22 0.05)
(0.275 1.22 0.05)
(0.325 1.22 0.05)
(0.375 1.22 0.05)
(0.425 1.22 0.05)
(0.475 1.22 0.05)
(0.525 1.22 0.05)
(0.575 1.22 0.05)
(0.625 1.22 0.05)
(0.675 1.22 0.05)
(0.725 1.22 0.05)
(0.775 1.22 0.05)
(0.825 1.22 0.05)
(0.875 1.22 0.05)
(0.925 1.22 0.05)
(0.975 1.22 0.05)
(0.025 1.26 0.05)
(0.075 1.26 0.05)
(0.125 1.26 0.05)
(0.175 1.26 0.05)
(0.225 1.26 0.05)
(0.275 1.26 0.05)
(0.325 1.26 0.05)
(0.375 1.26 0.05)
(0.425 1.26 0.05)
(0.475 1.26 0.05)
(0.525 1.26 0.05)
(0.575 1.26 0.05)
(0.625 1.26 0.05)
(0.675 1.26 0.05)
(0.725 1.26 0.05)
(0.775 1.26 0.05)
(0.825 1.26 0.05)
(0.875 1.26 0.05)
(0.925 1.26 0.05)
(0.975 1.26 0.05)
(0.025 1.3 0.05)
(0.075 1.3 0.05)
(0.125 1.3 0.05)
(0.175 1.3 0.05)
(0.225 1.3 0.05)
(0.275 1.3 0.05)
(0.325 1.3 0.05)
(0.375 1.3 0.05)
(0.425 1.3 0.05)
(0.475 1.3 0.05)
(0.525 1.3 0.05)
(0.575 1.3 0.05)
(0.625 1.3 0.05)
(0.675 1.3 0.05)
(0.725 1.3 0.05)
(0.775 1.3 0.05)
(0.825 1.3 0.05)
(0.875 1.3 0.05)
(0.925 1.3 0.05)
(0.975 1.3 0.05)
(0.025 1.34 0.05)
(0.075 1.34 0.05)
(0.125 1.34 0.05)
(0.175 1.34 0.05)
(0.225 1.34 0.05)
(0.275 1.34 0.05)
(0.325 1.34 0.05)
(0.375 1.34 0.05)
(0.425 1.34 0.05)
(0.475 1.34 0.05)
(0.525 1.34 0.05)
(0.575 1.34 0.05)
(0.625 1.34 0.05)
(0.675 1.34 0.05)
(0.725 1.34 0.05)
(0.775 1.34 0.05)
(0.825 1.34 0.05)
(0.875 1.34 0.05)
(0.925 1.34 0.05)
(0.975 1.34 0.05)
(0.025 1.38 0.05)
(0.075 1.38 0.05)
(0.125 1.38 0.05)
(0.175 1.38 0.05)
(0.225 1.38 0.05)
(0.275 1.38 0.05)
(0.325 1.38 0.05)
(0.375 1.38 0.05)
(0.425 1.38 0.05)
(0.475 1.38 0.05)
(0.525 1.38 0.05)
(0.575 1.38 0.05)
(0.625 1.38 0.05)
(0.675 1.38 0.05)
(0.725 1.38 0.05)
(0.775 1.38 0.05)
(0.825 1.38 0.05)
(0.875 1.38 0.05)
(0.925 1.38 0.05)
(0.975 1.38 0.05)
(0.025 1.42 0.05)
(0.075 1.42 0.05)
(0.125 1.42 0.05)
(0.175 1.42 0.05)
(0.225 1.42 0.05)
(0.275 1.42 0.05)
(0.325 1.42 0.05)
(0.375 1.42 0.05)
(0.425 1.42 0.05)
(0.475 1.42 0.05)
(0.525 1.42 0.05)
(0.575 1.42 0.05)
(0.625 1.42 0.05)
(0.675 1.42 0.05)
(0.725 1.42 0.05)
(0.775 1.42 0.05)
(0.825 1.42 0.05)
(0.875 1.42 0.05)
(0.925 1.42 0.05)
(0.975 1.42 0.05)
(0.025 1.46 0.05)
(0.075 1.46 0.05)
(0.125 1.46 0.05)
(0.175 1.46 0.05)
(0.225 1.46 0.05)
(0.275 1.46 0.05)
(0.325 1.46 0.05)
(0.375 1.46 0.05)
(0.425 1.46 0.05)
(0.475 1.46 0.05)
(0.525 1.46 0.05)
(0.575 1.46 0.05)
(0.625 1.46 0.05)
(0.675 1.46 0.05)
(0.725 1.46 0.05)
(0.775 1.46 0.05)
(0.825 1.46 0.05)
(0.875 1.46 0.05)
(0.925 1.46 0.05)
(0.975 1.46 0.05)
(0.025 1.5 0.05)
(0.075 1.5 0.05)
(0.125 1.5 0.05)
(0.175 1.5 0.05)
(0.225 1.5 0.05)
(0.275 1.5 0.05)
(0.325 1.5 0.05)
(0.375 1.5 0.05)
(0.425 1.5 0.05)
(0.475 1.5 0.05)
(0.525 1.5 0.05)
(0.575 1.5 0.05)
(0.625 1.5 0.05)
(0.675 1.5 0.05)
(0.725 1.5 0.05)
(0.775 1.5 0.05)
(0.825 1.5 0.05)
(0.875 1.5 0.05)
(0.925 1.5 0.05)
(0.975 1.5 0.05)
(0.025 1.54 0.05)
(0.075 1.54 0.05)
(0.125 1.54 0.05)
(0.175 1.54 0.05)
(0.225 1.54 0.05)
(0.275 1.54 0.05)
(0.325 1.54 0.05)
(0.375 1.54 0.05)
(0.425 1.54 0.05)
(0.475 1.54 0.05)
(0.525 1.54 0.05)
(0.575 1.54 0.05)
(0.625 1.54 0.05)
(0.675 1.54 0.05)
(0.725 1.54 0.05)
(0.775 1.54 0.05)
(0.825 1.54 0.05)
(0.875 1.54 0.05)
(0.925 1.54 0.05)
(0.975 1.54 0.05)
(0.025 1.58 0.05)
(0.075 1.58 0.05)
(0.125 1.58 0.05)
(0.175 1.58 0.05)
(0.225 1.58 0.05)
(0.275 1.58 0.05)
(0.325 1.58 0.05)
(0.375 1.58 0.05)
(0.425 1.58 0.05)
(0.475 1.58 0.05)
(0.525 1.58 0.05)
(0.575 1.58 0.05)
(0.625 1.58 0.05)
(0.675 1.58 0.05)
(0.725 1.58 0.05)
(0.775 1.58 0.05)
(0.825 1.58 0.05)
(0.875 1.58 0.05)
(0.925 1.58 0.05)
(0.975 1.58 0.05)
(0.025 1.62 0.05)
(0.075 1.62 0.05)
(0.125 1.62 0.05)
(0.175 1.62 0.05)
(0.225 1.62 0.05)
(0.275 1.62 0.05)
(0.325 1.62 0.05)
(0.375 1.62 0.05)
(0.425 1.62 0.05)
(0.475 1.62 0.05)
(0.525 1.62 0.05)
(0.575 1.62 0.05)
(0.625 1.62 0.05)
(0.675 1.62 0.05)
(0.725 1.62 0.05)
(0.775 1.62 0.05)
(0.825 1.62 0.05)
(0.875 1.62 0.05)
(0.925 1.62 0.05)
(0.975 1.62 0.05)
(0.025 1.66 0.05)
(0.075 1.66 0.05)
(0.125 1.66 0.05)
(0.175 1.66 0.05)
(0.225 1.66 0.05)
(0.275 1.66 0.05)
(0.325 1.66 0.05)
(0.375 1.66 0.05)
(0.425 1.66 0.05)
(0.475 1.66 0.05)
(0.525 1.66 0.05)
(0.575 1.66 0.05)
(0.625 1.66 0.05)
(0.675 1.66 0.05)
(0.725 1.66 0.05)
(0.775 1.66 0.05)
(0.825 1.66 0.05)
(0.875 1.66 0.05)
(0.925 1.66 0.05)
(0.975 1.66 0.05)
(0.025 1.7 0.05)
(0.075 1.7 0.05)
(0.125 1.7 0.05)
(0.175 1.7 0.05)
(0.225 1.7 0.05)
(0.275 1.7 0.05)
(0.325 1.7 0.05)
(0.375 1.7 0.05)
(0.425 1.7 0.05)
(0.475 1.7 0.05)
(0.525 1.7 0.05)
(0.575 1.7 0.05)
(0.625 1.7 0.05)
(0.675 1.7 0.05)
(0.725 1.7 0.05)
(0.775 1.7 0.05)
(0.825 1.7 0.05)
(0.875 1.7 0.05)
(0.925 1.7 0.05)
(0.975 1.7 0.05)
(0.025 1.74 0.05)
(0.075 1.74 0.05)
(0.125 1.74 0.05)
(0.175 1.74 0.05)
(0.225 1.74 0.05)
(0.275 1.74 0.05)
(0.325 1.74 0.05)
(0.375 1.74 0.05)
(0.425 1.74 0.05)
(0.475 1.74 0.05)
(0.525 1.74 0.05)
(0.575 1.74 0.05)
(0.625 1.74 0.05)
(0.675 1.74 0.05)
(0.725 1.74 0.05)
(0.775 1.74 0.05)
(0.825 1.74 0.05)
(0.875 1.74 0.05)
(0.925 1.74 0.05)
(0.975 1.74 0.05)
(0.025 1.78 0.05)
(0.075 1.78 0.05)
(0.125 1.78 0.05)
(0.175 1.78 0.05)
(0.225 1.78 0.05)
(0.275 1.78 0.05)
(0.325 1.78 0.05)
(0.375 1.78 0.05)
(0.425 1.78 0.05)
(0.475 1.78 0.05)
(0.525 1.78 0.05)
(0.575 1.78 0.05)
(0.625 1.78 0.05)
(0.675 1.78 0.05)
(0.725 1.78 0.05)
(0.775 1.78 0.05)
(0.825 1.78 0.05)
(0.875 1.78 0.05)
(0.925 1.78 0.05)
(0.975 1.78 0.05)
(0.025 1.82 0.05)
(0.075 1.82 0.05)
(0.125 1.82 0.05)
(0.175 1.82 0.05)
(0.225 1.82 0.05)
(0.275 1.82 0.05)
(0.325 1.82 0.05)
(0.375 1.82 0.05)
(0.425 1.82 0.05)
(0.475 1.82 0.05)
(0.525 1.82 0.05)
(0.575 1.82 0.05)
(0.625 1.82 0.05)
(0.675 1.82 0.05)
(0.725 1.82 0.05)
(0.775 1.82 0.05)
(0.825 1.82 0.05)
(0.875 1.82 0.05)
(0.925 1.82 0.05)
(0.975 1.82 0.05)
(0.025 1.86 0.05)
(0.075 1.86 0.05)
(0.125 1.86 0.05)
(0.175 1.86 0.05)
(0.225 1.86 0.05)
(0.275 1.86 0.05)
(0.325 1.86 0.05)
(0.375 1.86 0.05)
(0.425 1.86 0.05)
(0.475 1.86 0.05)
(0.525 1.86 0.05)
(0.575 1.86 0.05)
(0.625 1.86 0.05)
(0.675 1.86 0.05)
(0.725 1.86 0.05)
(0.775 1.86 0.05)
(0.825 1.86 0.05)
(0.875 1.86 0.05)
(0.925 1.86 0.05)
(0.975 1.86 0.05)
(0.025 1.9 0.05)
(0.075 1.9 0.05)
(0.125 1.9 0.05)
(0.175 1.9 0.05)
(0.225 1.9 0.05)
(0.275 1.9 0.05)
(0.325 1.9 0.05)
(0.375 1.9 0.05)
(0.425 1.9 0.05)
(0.475 1.9 0.05)
(0.525 1.9 0.05)
(0.575 1.9 0.05)
(0.625 1.9 0.05)
(0.675 1.9 0.05)
(0.725 1.9 0.05)
(0.775 1.9 0.05)
(0.825 1.9 0.05)
(0.875 1.9 0.05)
(0.925 1.9 0.05)
(0.975 1.9 0.05)
(0.025 1.94 0.05)
(0.075 1.94 0.05)
(0.125 1.94 0.05)
(0.175 1.94 0.05)
(0.225 1.94 0.05)
(0.275 1.94 0.05)
(0.325 1.94 0.05)
(0.375 1.94 0.05)
(0.425 1.94 0.05)
(0.475 1.94 0.05)
(0.525 1.94 0.05)
(0.575 1.94 0.05)
(0.625 1.94 0.05)
(0.675 1.94 0.05)
(0.725 1.94 0.05)
(0.775 1.94 0.05)
(0.825 1.94 0.05)
(0.875 1.94 0.05)
(0.925 1.94 0.05)
(0.975 1.94 0.05)
(0.025 1.98 0.05)
(0.075 1.98 0.05)
(0.125 1.98 0.05)
(0.175 1.98 0.05)
(0.225 1.98 0.05)
(0.275 1.98 0.05)
(0.325 1.98 0.05)
(0.375 1.98 0.05)
(0.425 1.98 0.05)
(0.475 1.98 0.05)
(0.525 1.98 0.05)
(0.575 1.98 0.05)
(0.625 1.98 0.05)
(0.675 1.98 0.05)
(0.725 1.98 0.05)
(0.775 1.98 0.05)
(0.825 1.98 0.05)
(0.875 1.98 0.05)
(0.925 1.98 0.05)
(0.975 1.98 0.05)
)
;

boundaryField
{
    inlet
    {
        type            cyclic;
    }
    outlet
    {
        type            cyclic;
    }
    bottom
    {
        type            calculated;
        value           nonuniform List<vector> 
20
(
(0.025 0 0.05)
(0.075 0 0.05)
(0.125 0 0.05)
(0.175 0 0.05)
(0.225 0 0.05)
(0.275 0 0.05)
(0.325 0 0.05)
(0.375 0 0.05)
(0.425 0 0.05)
(0.475 0 0.05)
(0.525 0 0.05)
(0.575 0 0.05)
(0.625 0 0.05)
(0.675 0 0.05)
(0.725 0 0.05)
(0.775 0 0.05)
(0.825 0 0.05)
(0.875 0 0.05)
(0.925 0 0.05)
(0.975 0 0.05)
)
;
    }
    top
    {
        type            calculated;
        value           nonuniform List<vector> 
20
(
(0.025 2 0.05)
(0.075 2 0.05)
(0.125 2 0.05)
(0.175 2 0.05)
(0.225 2 0.05)
(0.275 2 0.05)
(0.325 2 0.05)
(0.375 2 0.05)
(0.425 2 0.05)
(0.475 2 0.05)
(0.525 2 0.05)
(0.575 2 0.05)
(0.625 2 0.05)
(0.675 2 0.05)
(0.725 2 0.05)
(0.775 2 0.05)
(0.825 2 0.05)
(0.875 2 0.05)
(0.925 2 0.05)
(0.975 2 0.05)
)
;
    }
    front
    {
        type            cyclic;
    }
    Back
    {
        type            cyclic;
    }
}


// ************************************************************************* //
