   1   0.221198e+00   0.308821e-06   0.108495e-04
   2   0.449985e+00   0.471942e-05   0.921433e-04
   3   0.686799e+00   0.235528e-04   0.331442e-03
   4   0.932082e+00   0.739432e-04   0.837634e-03
   5   0.118628e+01   0.179810e-03   0.174288e-02
   6   0.144982e+01   0.371750e-03   0.320344e-02
   7   0.172316e+01   0.686823e-03   0.539905e-02
   8   0.200675e+01   0.116824e-02   0.853032e-02
   9   0.230102e+01   0.186492e-02   0.128141e-01
  10   0.260640e+01   0.283092e-02   0.184767e-01
  11   0.292334e+01   0.412484e-02   0.257445e-01
  12   0.325227e+01   0.580896e-02   0.348341e-01
  13   0.359363e+01   0.794854e-02   0.459400e-01
  14   0.394783e+01   0.106108e-01   0.592232e-01
  15   0.431530e+01   0.138643e-01   0.748002e-01
  16   0.469644e+01   0.177774e-01   0.927338e-01
  17   0.509167e+01   0.224182e-01   0.113026e+00
  18   0.550139e+01   0.278530e-01   0.135615e+00
  19   0.592599e+01   0.341457e-01   0.160376e+00
  20   0.636586e+01   0.413569e-01   0.187121e+00
  21   0.682136e+01   0.495433e-01   0.215611e+00
  22   0.729288e+01   0.587563e-01   0.245560e+00
  23   0.778075e+01   0.690419e-01   0.276652e+00
  24   0.828536e+01   0.804391e-01   0.308549e+00
  25   0.880700e+01   0.929793e-01   0.340906e+00
  26   0.934594e+01   0.106686e+00   0.373381e+00
  27   0.990265e+01   0.121572e+00   0.405652e+00
  28   0.104773e+02   0.137641e+00   0.437420e+00
  29   0.110702e+02   0.154886e+00   0.468419e+00
  30   0.116817e+02   0.173289e+00   0.498418e+00
  31   0.123120e+02   0.192818e+00   0.527230e+00
  32   0.129614e+02   0.213430e+00   0.554704e+00
  33   0.136299e+02   0.235071e+00   0.580731e+00
  34   0.143181e+02   0.257676e+00   0.605235e+00
  35   0.150260e+02   0.281168e+00   0.628177e+00
  36   0.157538e+02   0.305459e+00   0.649541e+00
  37   0.165017e+02   0.330456e+00   0.669341e+00
  38   0.172699e+02   0.356055e+00   0.687607e+00
  39   0.180585e+02   0.382151e+00   0.704387e+00
  40   0.188676e+02   0.408632e+00   0.719737e+00
  41   0.196974e+02   0.435385e+00   0.733726e+00
  42   0.205480e+02   0.462296e+00   0.746424e+00
  43   0.214194e+02   0.489256e+00   0.757905e+00
  44   0.223118e+02   0.516153e+00   0.768244e+00
  45   0.232253e+02   0.542885e+00   0.777515e+00
  46   0.241598e+02   0.569349e+00   0.785789e+00
  47   0.251154e+02   0.595452e+00   0.793137e+00
  48   0.260922e+02   0.621101e+00   0.799624e+00
  49   0.270900e+02   0.646211e+00   0.805315e+00
  50   0.281091e+02   0.670704e+00   0.810269e+00
  51   0.291493e+02   0.694504e+00   0.814542e+00
  52   0.302105e+02   0.717548e+00   0.818182e+00
  53   0.312927e+02   0.739775e+00   0.821239e+00
  54   0.323959e+02   0.761140e+00   0.823753e+00
  55   0.335201e+02   0.781603e+00   0.825762e+00
  56   0.346650e+02   0.801136e+00   0.827300e+00
  57   0.358308e+02   0.819719e+00   0.828399e+00
  58   0.370170e+02   0.837347e+00   0.829086e+00
  59   0.382238e+02   0.854017e+00   0.829389e+00
  60   0.394510e+02   0.869736e+00   0.829339e+00
  61   0.406984e+02   0.884515e+00   0.828965e+00
  62   0.419660e+02   0.898366e+00   0.828297e+00
  63   0.432534e+02   0.911302e+00   0.827360e+00
  64   0.445606e+02   0.923342e+00   0.826179e+00
  65   0.458873e+02   0.934502e+00   0.824773e+00
  66   0.472334e+02   0.944798e+00   0.823162e+00
  67   0.485987e+02   0.954256e+00   0.821360e+00
  68   0.499830e+02   0.962897e+00   0.819381e+00
  69   0.513860e+02   0.970751e+00   0.817235e+00
  70   0.528076e+02   0.977845e+00   0.814930e+00
  71   0.542476e+02   0.984209e+00   0.812474e+00
  72   0.557055e+02   0.989870e+00   0.809875e+00
  73   0.571813e+02   0.994861e+00   0.807143e+00
  74   0.586748e+02   0.999208e+00   0.804284e+00
  75   0.601855e+02   0.100294e+01   0.801306e+00
  76   0.617134e+02   0.100608e+01   0.798218e+00
  77   0.632581e+02   0.100866e+01   0.795025e+00
  78   0.648193e+02   0.101070e+01   0.791734e+00
  79   0.663968e+02   0.101221e+01   0.788351e+00
  80   0.679904e+02   0.101324e+01   0.784883e+00
  81   0.695996e+02   0.101382e+01   0.781334e+00
  82   0.712244e+02   0.101397e+01   0.777709e+00
  83   0.728643e+02   0.101371e+01   0.774012e+00
  84   0.745191e+02   0.101307e+01   0.770247e+00
  85   0.761885e+02   0.101208e+01   0.766418e+00
  86   0.778724e+02   0.101076e+01   0.762529e+00
  87   0.795704e+02   0.100914e+01   0.758584e+00
  88   0.812815e+02   0.100722e+01   0.754588e+00
  89   0.830069e+02   0.100503e+01   0.750544e+00
  90   0.847449e+02   0.100260e+01   0.746452e+00
  91   0.864955e+02   0.999931e+00   0.742314e+00
  92   0.882596e+02   0.997044e+00   0.738128e+00
  93   0.900355e+02   0.993950e+00   0.733900e+00
  94   0.918233e+02   0.990665e+00   0.729636e+00
  95   0.936229e+02   0.987204e+00   0.725338e+00
  96   0.954344e+02   0.983584e+00   0.721011e+00
  97   0.972569e+02   0.979825e+00   0.716655e+00
  98   0.990897e+02   0.975944e+00   0.712270e+00
  99   0.100934e+03   0.971955e+00   0.707852e+00
 100   0.102788e+03   0.967871e+00   0.703401e+00
 101   0.104652e+03   0.963697e+00   0.698914e+00
 102   0.106526e+03   0.959440e+00   0.694392e+00
 103   0.108409e+03   0.955106e+00   0.689837e+00
 104   0.110302e+03   0.950699e+00   0.685248e+00
 105   0.112204e+03   0.946222e+00   0.680630e+00
 106   0.114115e+03   0.941680e+00   0.675985e+00
 107   0.116034e+03   0.937075e+00   0.671315e+00
 108   0.117960e+03   0.932408e+00   0.666620e+00
 109   0.119896e+03   0.927674e+00   0.661903e+00
 110   0.121839e+03   0.922868e+00   0.657167e+00
 111   0.123789e+03   0.917987e+00   0.652417e+00
 112   0.125747e+03   0.913027e+00   0.647656e+00
 113   0.127711e+03   0.907987e+00   0.642886e+00
 114   0.129683e+03   0.902871e+00   0.638103e+00
 115   0.131661e+03   0.897683e+00   0.633309e+00
 116   0.133646e+03   0.892426e+00   0.628504e+00
 117   0.135637e+03   0.887108e+00   0.623690e+00
 118   0.137633e+03   0.881741e+00   0.618865e+00
 119   0.139636e+03   0.876334e+00   0.614029e+00
 120   0.141644e+03   0.870903e+00   0.609179e+00
 121   0.143657e+03   0.865460e+00   0.604314e+00
 122   0.145675e+03   0.860014e+00   0.599434e+00
 123   0.147698e+03   0.854572e+00   0.594541e+00
 124   0.149726e+03   0.849136e+00   0.589636e+00
 125   0.151759e+03   0.843711e+00   0.584718e+00
 126   0.153796e+03   0.838294e+00   0.579786e+00
 127   0.155838e+03   0.832887e+00   0.574840e+00
 128   0.157884e+03   0.827488e+00   0.569880e+00
 129   0.159933e+03   0.822095e+00   0.564912e+00
 130   0.161986e+03   0.816706e+00   0.559936e+00
 131   0.164043e+03   0.811319e+00   0.554954e+00
 132   0.166104e+03   0.805933e+00   0.549966e+00
 133   0.168167e+03   0.800547e+00   0.544973e+00
 134   0.170234e+03   0.795162e+00   0.539972e+00
 135   0.172304e+03   0.789780e+00   0.534965e+00
 136   0.174377e+03   0.784406e+00   0.529948e+00
 137   0.176453e+03   0.779039e+00   0.524923e+00
 138   0.178531e+03   0.773682e+00   0.519891e+00
 139   0.180612e+03   0.768335e+00   0.514855e+00
 140   0.182695e+03   0.762999e+00   0.509815e+00
 141   0.184782e+03   0.757674e+00   0.504772e+00
 142   0.186870e+03   0.752362e+00   0.499726e+00
 143   0.188960e+03   0.747063e+00   0.494675e+00
 144   0.191052e+03   0.741780e+00   0.489622e+00
 145   0.193146e+03   0.736512e+00   0.484567e+00
 146   0.195242e+03   0.731267e+00   0.479510e+00
 147   0.197340e+03   0.726047e+00   0.474451e+00
 148   0.199439e+03   0.720856e+00   0.469393e+00
 149   0.201541e+03   0.715693e+00   0.464338e+00
 150   0.203644e+03   0.710558e+00   0.459286e+00
 151   0.205748e+03   0.705448e+00   0.454239e+00
 152   0.207853e+03   0.700360e+00   0.449199e+00
 153   0.209960e+03   0.695295e+00   0.444161e+00
 154   0.212068e+03   0.690255e+00   0.439125e+00
 155   0.214177e+03   0.685245e+00   0.434087e+00
 156   0.216288e+03   0.680265e+00   0.429045e+00
 157   0.218399e+03   0.675321e+00   0.423998e+00
 158   0.220512e+03   0.670413e+00   0.418948e+00
 159   0.222625e+03   0.665544e+00   0.413895e+00
 160   0.224739e+03   0.660714e+00   0.408839e+00
 161   0.226855e+03   0.655925e+00   0.403777e+00
 162   0.228970e+03   0.651180e+00   0.398708e+00
 163   0.231087e+03   0.646477e+00   0.393629e+00
 164   0.233205e+03   0.641817e+00   0.388541e+00
 165   0.235323e+03   0.637200e+00   0.383445e+00
 166   0.237442e+03   0.632622e+00   0.378344e+00
 167   0.239561e+03   0.628084e+00   0.373239e+00
 168   0.241682e+03   0.623585e+00   0.368131e+00
 169   0.243802e+03   0.619125e+00   0.363020e+00
 170   0.245923e+03   0.614710e+00   0.357904e+00
 171   0.248045e+03   0.610341e+00   0.352785e+00
 172   0.250167e+03   0.606028e+00   0.347664e+00
 173   0.252290e+03   0.601775e+00   0.342539e+00
 174   0.254413e+03   0.597585e+00   0.337411e+00
 175   0.256537e+03   0.593466e+00   0.332278e+00
 176   0.258660e+03   0.589417e+00   0.327139e+00
 177   0.260785e+03   0.585437e+00   0.321995e+00
 178   0.262909e+03   0.581524e+00   0.316848e+00
 179   0.265034e+03   0.577675e+00   0.311699e+00
 180   0.267159e+03   0.573886e+00   0.306547e+00
 181   0.269285e+03   0.570152e+00   0.301395e+00
 182   0.271411e+03   0.566467e+00   0.296240e+00
 183   0.273537e+03   0.562826e+00   0.291083e+00
 184   0.275663e+03   0.559222e+00   0.285924e+00
 185   0.277790e+03   0.555648e+00   0.280765e+00
 186   0.279917e+03   0.552095e+00   0.275605e+00
 187   0.282044e+03   0.548557e+00   0.270448e+00
 188   0.284172e+03   0.545027e+00   0.265293e+00
 189   0.286299e+03   0.541504e+00   0.260142e+00
 190   0.288427e+03   0.537986e+00   0.254995e+00
 191   0.290556e+03   0.534477e+00   0.249852e+00
 192   0.292684e+03   0.530983e+00   0.244712e+00
 193   0.294812e+03   0.527512e+00   0.239577e+00
 194   0.296940e+03   0.524076e+00   0.234445e+00
 195   0.299070e+03   0.520687e+00   0.229317e+00
 196   0.301199e+03   0.517356e+00   0.224193e+00
 197   0.303328e+03   0.514099e+00   0.219073e+00
 198   0.305457e+03   0.510923e+00   0.213958e+00
 199   0.307587e+03   0.507840e+00   0.208847e+00
 200   0.309716e+03   0.504857e+00   0.203741e+00
 201   0.311846e+03   0.501977e+00   0.198639e+00
 202   0.313976e+03   0.499202e+00   0.193541e+00
 203   0.316107e+03   0.496532e+00   0.188448e+00
 204   0.318237e+03   0.493959e+00   0.183359e+00
 205   0.320367e+03   0.491482e+00   0.178273e+00
 206   0.322498e+03   0.489092e+00   0.173191e+00
 207   0.324629e+03   0.486783e+00   0.168110e+00
 208   0.326760e+03   0.484548e+00   0.163032e+00
 209   0.328890e+03   0.482377e+00   0.157956e+00
 210   0.331022e+03   0.480264e+00   0.152883e+00
 211   0.333153e+03   0.478202e+00   0.147814e+00
 212   0.335285e+03   0.476186e+00   0.142747e+00
 213   0.337416e+03   0.474210e+00   0.137683e+00
 214   0.339548e+03   0.472274e+00   0.132619e+00
 215   0.341680e+03   0.470378e+00   0.127555e+00
 216   0.343811e+03   0.468520e+00   0.122491e+00
 217   0.345943e+03   0.466704e+00   0.117424e+00
 218   0.348076e+03   0.464932e+00   0.112357e+00
 219   0.350208e+03   0.463207e+00   0.107288e+00
 220   0.352340e+03   0.461533e+00   0.102217e+00
 221   0.354472e+03   0.459912e+00   0.971419e-01
 222   0.356605e+03   0.458346e+00   0.920636e-01
 223   0.358737e+03   0.456840e+00   0.869811e-01
 224   0.360870e+03   0.455393e+00   0.818941e-01
 225   0.363003e+03   0.454009e+00   0.768027e-01
 226   0.365136e+03   0.452692e+00   0.717064e-01
 227   0.367269e+03   0.451445e+00   0.666049e-01
 228   0.369402e+03   0.450271e+00   0.614975e-01
 229   0.371535e+03   0.449174e+00   0.563842e-01
 230   0.373668e+03   0.448155e+00   0.512656e-01
 231   0.375801e+03   0.447219e+00   0.461424e-01
 232   0.377934e+03   0.446368e+00   0.410162e-01
 233   0.380067e+03   0.445605e+00   0.358881e-01
 234   0.382200e+03   0.444934e+00   0.307596e-01
 235   0.384333e+03   0.444356e+00   0.256315e-01
 236   0.386466e+03   0.443878e+00   0.205043e-01
 237   0.388600e+03   0.443500e+00   0.153778e-01
 238   0.390733e+03   0.443228e+00   0.102517e-01
 239   0.392867e+03   0.443063e+00   0.512585e-02
 240   0.395000e+03   0.443008e+00   0.000000e+00