0.9987341772	0.000024384
0.9960897481	0.000024386
0.993210414	2.43904259549646E-05
0.9900768611	0.000024398
0.9866684822	2.44095222358539E-05
0.9829633473	2.44258898840344E-05
0.9789381852	2.44482251773668E-05
0.9745683806	2.44778447111943E-05
0.9698279891	2.45163031269985E-05
0.9646897735	2.45654284828692E-05
0.9591252669	2.4627361093396E-05
0.9531048657	2.47045956365398E-05
0.9465979583	0.0000248
0.9395730937	0.000024917
0.9319981951	2.50593298087457E-05
0.9238408242	2.523141292178E-05
0.9150684989	2.54382021956344E-05
0.9056490705	2.56852794456748E-05
0.8955511608	2.59788740814504E-05
0.884744662	2.63258726095459E-05
0.8732012982	2.67338051719045E-05
0.8608952456	2.72108017288045E-05
0.8478038054	2.77655101522834E-05
0.8339081205	0.000028407
0.8191939233	2.91444301565576E-05
0.8036522979	2.99871283144182E-05
0.7872804352	0.000030944
0.7700823585	3.20233830731215E-05
0.7520695903	3.32326482099108E-05
0.7332617303	3.45779000098834E-05
0.7136869155	3.6063664226015E-05
0.6933821294	3.7692659653474E-05
0.6723933328	3.94656592607457E-05
0.6507753917	4.13814631818467E-05
0.6285917842	0.000043437
0.6059140757	4.56274935129668E-05
0.5828211621	4.79468514651935E-05
0.559398292	0.000050388
0.5357358869	5.2943133599241E-05
0.5119281934	5.5604522252817E-05
0.4880718066	5.83644717325088E-05
0.4642641131	6.12158150070578E-05
0.440601708	0.000064152
0.4171788379	6.71673632006763E-05
0.3940859243	7.02565238105638E-05
0.3714082158	7.3414549698793E-05
0.3492246083	7.66362182746614E-05
0.3276066672	7.99153770784248E-05
0.3066178706	8.32440908295298E-05
0.2863130845	8.66116525611758E-05
0.2667382697	9.00035110261593E-05
0.2479304097	9.34002289449285E-05
0.2299176415	9.67765718294609E-05
0.2127195648	0.0001001008
0.1963477021	0.0001033344
0.1808060767	0.0001064317
0.1660918795	0.0001093408
0.1521961946	0.0001120036
0.1391047544	0.0001143569
0.1267987018	0.0001163334
0.115255338	0.000117862
0.1044488392	0.000118868
0.0943509295	0.0001192734
0.0849315011	0.000118995
0.0761591758	0.0001179431
0.0680018049	0.0001160187
0.0604269063	0.0001131101
0.0534020417	0.0001090903
0.0468951343	0.0001038153
0.0408747331	9.71288010009106E-05
0.0353102265	8.8880833132364E-05
0.0301720109	7.89764896977711E-05
0.0254316194	6.74772390138676E-05
0.0210618148	5.47632085978798E-05
0.0170366527	0.000041671
0.0133315178	2.93327331070942E-05
0.0099231389	1.87470574872858E-05
0.006789586	1.03483173459645E-05
0.0039102519	4.1744865703447E-06
0.0012658228	4.0348003090951E-07