# y+ ()       
# Time        	patch         	min           	max           	average       
0             	bottom	2.668374e+00	2.668374e+00	2.668374e+00
0             	top	2.668375e+00	2.668375e+00	2.668375e+00
1             	bottom	3.492226e-01	3.492226e-01	3.492226e-01
1             	top	3.492224e-01	3.492224e-01	3.492224e-01
2             	bottom	3.126967e-01	3.126967e-01	3.126967e-01
2             	top	3.126963e-01	3.126963e-01	3.126963e-01
3             	bottom	2.988297e-01	2.988297e-01	2.988297e-01
3             	top	2.988291e-01	2.988291e-01	2.988291e-01
4             	bottom	2.926499e-01	2.926499e-01	2.926499e-01
4             	top	2.926498e-01	2.926498e-01	2.926498e-01
5             	bottom	2.942721e-01	2.942721e-01	2.942721e-01
5             	top	2.942755e-01	2.942755e-01	2.942755e-01
6             	bottom	3.745403e-01	3.745403e-01	3.745403e-01
6             	top	3.748394e-01	3.748394e-01	3.748394e-01
7             	bottom	4.879992e-01	4.879992e-01	4.879992e-01
7             	top	4.879879e-01	4.879879e-01	4.879879e-01
8             	bottom	4.990995e-01	4.990995e-01	4.990995e-01
8             	top	4.990973e-01	4.990973e-01	4.990973e-01
9             	bottom	5.064174e-01	5.064174e-01	5.064174e-01
9             	top	5.064059e-01	5.064059e-01	5.064059e-01
10            	bottom	5.062844e-01	5.062844e-01	5.062844e-01
10            	top	5.062768e-01	5.062768e-01	5.062768e-01
11            	bottom	5.065783e-01	5.065783e-01	5.065783e-01
11            	top	5.065789e-01	5.065789e-01	5.065789e-01
12            	bottom	5.079670e-01	5.079670e-01	5.079670e-01
12            	top	5.079736e-01	5.079736e-01	5.079736e-01
13            	bottom	5.098362e-01	5.098362e-01	5.098362e-01
13            	top	5.098437e-01	5.098437e-01	5.098437e-01
14            	bottom	5.116570e-01	5.116570e-01	5.116570e-01
14            	top	5.116632e-01	5.116632e-01	5.116632e-01
15            	bottom	5.131963e-01	5.131963e-01	5.131963e-01
15            	top	5.132071e-01	5.132071e-01	5.132071e-01
16            	bottom	5.145738e-01	5.145738e-01	5.145738e-01
16            	top	5.145831e-01	5.145831e-01	5.145831e-01
17            	bottom	5.157989e-01	5.157989e-01	5.157989e-01
17            	top	5.158075e-01	5.158075e-01	5.158075e-01
18            	bottom	5.168831e-01	5.168831e-01	5.168831e-01
18            	top	5.168915e-01	5.168915e-01	5.168915e-01
19            	bottom	5.178616e-01	5.178616e-01	5.178616e-01
19            	top	5.178696e-01	5.178696e-01	5.178696e-01
20            	bottom	5.187507e-01	5.187507e-01	5.187507e-01
20            	top	5.187582e-01	5.187582e-01	5.187582e-01
21            	bottom	5.195587e-01	5.195587e-01	5.195587e-01
21            	top	5.195657e-01	5.195657e-01	5.195657e-01
22            	bottom	5.202922e-01	5.202922e-01	5.202922e-01
22            	top	5.202986e-01	5.202986e-01	5.202986e-01
23            	bottom	5.209576e-01	5.209576e-01	5.209576e-01
23            	top	5.209635e-01	5.209635e-01	5.209635e-01
24            	bottom	5.215611e-01	5.215611e-01	5.215611e-01
24            	top	5.215665e-01	5.215665e-01	5.215665e-01
25            	bottom	5.220530e-01	5.220530e-01	5.220530e-01
25            	top	5.220611e-01	5.220611e-01	5.220611e-01
26            	bottom	5.225595e-01	5.225595e-01	5.225595e-01
26            	top	5.225644e-01	5.225644e-01	5.225644e-01
27            	bottom	5.229495e-01	5.229495e-01	5.229495e-01
27            	top	5.229588e-01	5.229588e-01	5.229588e-01
28            	bottom	5.233454e-01	5.233454e-01	5.233454e-01
28            	top	5.233541e-01	5.233541e-01	5.233541e-01
29            	bottom	5.237132e-01	5.237132e-01	5.237132e-01
29            	top	5.237210e-01	5.237210e-01	5.237210e-01
30            	bottom	5.240516e-01	5.240516e-01	5.240516e-01
30            	top	5.240587e-01	5.240587e-01	5.240587e-01
31            	bottom	5.243675e-01	5.243675e-01	5.243675e-01
31            	top	5.243740e-01	5.243740e-01	5.243740e-01
32            	bottom	5.246573e-01	5.246573e-01	5.246573e-01
32            	top	5.246632e-01	5.246632e-01	5.246632e-01
33            	bottom	5.249205e-01	5.249205e-01	5.249205e-01
33            	top	5.249258e-01	5.249258e-01	5.249258e-01
34            	bottom	5.251584e-01	5.251584e-01	5.251584e-01
34            	top	5.251632e-01	5.251632e-01	5.251632e-01
35            	bottom	5.253731e-01	5.253731e-01	5.253731e-01
35            	top	5.253776e-01	5.253776e-01	5.253776e-01
36            	bottom	5.255672e-01	5.255672e-01	5.255672e-01
36            	top	5.255713e-01	5.255713e-01	5.255713e-01
37            	bottom	5.257373e-01	5.257373e-01	5.257373e-01
37            	top	5.257409e-01	5.257409e-01	5.257409e-01
38            	bottom	5.258832e-01	5.258832e-01	5.258832e-01
38            	top	5.258866e-01	5.258866e-01	5.258866e-01
39            	bottom	5.259724e-01	5.259724e-01	5.259724e-01
39            	top	5.260149e-01	5.260149e-01	5.260149e-01
40            	bottom	5.260703e-01	5.260703e-01	5.260703e-01
40            	top	5.260769e-01	5.260769e-01	5.260769e-01
41            	bottom	5.262230e-01	5.262230e-01	5.262230e-01
41            	top	5.261888e-01	5.261888e-01	5.261888e-01
42            	bottom	5.262819e-01	5.262819e-01	5.262819e-01
42            	top	5.262794e-01	5.262794e-01	5.262794e-01
43            	bottom	5.263292e-01	5.263292e-01	5.263292e-01
43            	top	5.263327e-01	5.263327e-01	5.263327e-01
44            	bottom	5.264210e-01	5.264210e-01	5.264210e-01
44            	top	5.264302e-01	5.264302e-01	5.264302e-01
45            	bottom	5.265026e-01	5.265026e-01	5.265026e-01
45            	top	5.265305e-01	5.265305e-01	5.265305e-01
46            	bottom	5.265498e-01	5.265498e-01	5.265498e-01
46            	top	5.265889e-01	5.265889e-01	5.265889e-01
47            	bottom	5.266421e-01	5.266421e-01	5.266421e-01
47            	top	5.266439e-01	5.266439e-01	5.266439e-01
48            	bottom	5.267044e-01	5.267044e-01	5.267044e-01
48            	top	5.266876e-01	5.266876e-01	5.266876e-01
49            	bottom	5.267916e-01	5.267916e-01	5.267916e-01
49            	top	5.267708e-01	5.267708e-01	5.267708e-01
50            	bottom	5.267846e-01	5.267846e-01	5.267846e-01
50            	top	5.267898e-01	5.267898e-01	5.267898e-01
51            	bottom	5.268670e-01	5.268670e-01	5.268670e-01
51            	top	5.268742e-01	5.268742e-01	5.268742e-01
52            	bottom	5.269218e-01	5.269218e-01	5.269218e-01
52            	top	5.268921e-01	5.268921e-01	5.268921e-01
53            	bottom	5.269409e-01	5.269409e-01	5.269409e-01
53            	top	5.269529e-01	5.269529e-01	5.269529e-01
54            	bottom	5.269542e-01	5.269542e-01	5.269542e-01
54            	top	5.269811e-01	5.269811e-01	5.269811e-01
55            	bottom	5.269826e-01	5.269826e-01	5.269826e-01
55            	top	5.270035e-01	5.270035e-01	5.270035e-01
56            	bottom	5.270080e-01	5.270080e-01	5.270080e-01
56            	top	5.270223e-01	5.270223e-01	5.270223e-01
57            	bottom	5.270623e-01	5.270623e-01	5.270623e-01
57            	top	5.270643e-01	5.270643e-01	5.270643e-01
58            	bottom	5.271157e-01	5.271157e-01	5.271157e-01
58            	top	5.270564e-01	5.270564e-01	5.270564e-01
59            	bottom	5.271210e-01	5.271210e-01	5.271210e-01
59            	top	5.271347e-01	5.271347e-01	5.271347e-01
60            	bottom	5.271614e-01	5.271614e-01	5.271614e-01
60            	top	5.271792e-01	5.271792e-01	5.271792e-01
61            	bottom	5.271690e-01	5.271690e-01	5.271690e-01
61            	top	5.272093e-01	5.272093e-01	5.272093e-01
62            	bottom	5.271727e-01	5.271727e-01	5.271727e-01
62            	top	5.271437e-01	5.271437e-01	5.271437e-01
63            	bottom	5.271829e-01	5.271829e-01	5.271829e-01
63            	top	5.271618e-01	5.271618e-01	5.271618e-01
64            	bottom	5.271932e-01	5.271932e-01	5.271932e-01
64            	top	5.271756e-01	5.271756e-01	5.271756e-01
65            	bottom	5.272073e-01	5.272073e-01	5.272073e-01
65            	top	5.271980e-01	5.271980e-01	5.271980e-01
66            	bottom	5.272268e-01	5.272268e-01	5.272268e-01
66            	top	5.272284e-01	5.272284e-01	5.272284e-01
67            	bottom	5.272735e-01	5.272735e-01	5.272735e-01
67            	top	5.272868e-01	5.272868e-01	5.272868e-01
68            	bottom	5.272695e-01	5.272695e-01	5.272695e-01
68            	top	5.272924e-01	5.272924e-01	5.272924e-01
69            	bottom	5.272777e-01	5.272777e-01	5.272777e-01
69            	top	5.272974e-01	5.272974e-01	5.272974e-01
70            	bottom	5.272827e-01	5.272827e-01	5.272827e-01
70            	top	5.273001e-01	5.273001e-01	5.273001e-01
71            	bottom	5.272906e-01	5.272906e-01	5.272906e-01
71            	top	5.273052e-01	5.273052e-01	5.273052e-01
72            	bottom	5.272999e-01	5.272999e-01	5.272999e-01
72            	top	5.273115e-01	5.273115e-01	5.273115e-01
73            	bottom	5.273102e-01	5.273102e-01	5.273102e-01
73            	top	5.273187e-01	5.273187e-01	5.273187e-01
74            	bottom	5.273319e-01	5.273319e-01	5.273319e-01
74            	top	5.273327e-01	5.273327e-01	5.273327e-01
75            	bottom	5.273662e-01	5.273662e-01	5.273662e-01
75            	top	5.273567e-01	5.273567e-01	5.273567e-01
76            	bottom	5.273414e-01	5.273414e-01	5.273414e-01
76            	top	5.273304e-01	5.273304e-01	5.273304e-01
77            	bottom	5.273572e-01	5.273572e-01	5.273572e-01
77            	top	5.273459e-01	5.273459e-01	5.273459e-01
78            	bottom	5.273599e-01	5.273599e-01	5.273599e-01
78            	top	5.273504e-01	5.273504e-01	5.273504e-01
79            	bottom	5.273619e-01	5.273619e-01	5.273619e-01
79            	top	5.273537e-01	5.273537e-01	5.273537e-01
80            	bottom	5.273633e-01	5.273633e-01	5.273633e-01
80            	top	5.273562e-01	5.273562e-01	5.273562e-01
81            	bottom	5.273648e-01	5.273648e-01	5.273648e-01
81            	top	5.273584e-01	5.273584e-01	5.273584e-01
82            	bottom	5.273661e-01	5.273661e-01	5.273661e-01
82            	top	5.273603e-01	5.273603e-01	5.273603e-01
83            	bottom	5.273672e-01	5.273672e-01	5.273672e-01
83            	top	5.273617e-01	5.273617e-01	5.273617e-01
84            	bottom	5.273686e-01	5.273686e-01	5.273686e-01
84            	top	5.273634e-01	5.273634e-01	5.273634e-01
85            	bottom	5.273697e-01	5.273697e-01	5.273697e-01
85            	top	5.273647e-01	5.273647e-01	5.273647e-01
86            	bottom	5.273721e-01	5.273721e-01	5.273721e-01
86            	top	5.273681e-01	5.273681e-01	5.273681e-01
87            	bottom	5.273746e-01	5.273746e-01	5.273746e-01
87            	top	5.273711e-01	5.273711e-01	5.273711e-01
88            	bottom	5.273770e-01	5.273770e-01	5.273770e-01
88            	top	5.273741e-01	5.273741e-01	5.273741e-01
89            	bottom	5.273794e-01	5.273794e-01	5.273794e-01
89            	top	5.273771e-01	5.273771e-01	5.273771e-01
90            	bottom	5.273826e-01	5.273826e-01	5.273826e-01
90            	top	5.273812e-01	5.273812e-01	5.273812e-01
91            	bottom	5.273864e-01	5.273864e-01	5.273864e-01
91            	top	5.273859e-01	5.273859e-01	5.273859e-01
92            	bottom	5.273963e-01	5.273963e-01	5.273963e-01
92            	top	5.274004e-01	5.274004e-01	5.274004e-01
93            	bottom	5.274120e-01	5.274120e-01	5.274120e-01
93            	top	5.274238e-01	5.274238e-01	5.274238e-01
94            	bottom	5.274133e-01	5.274133e-01	5.274133e-01
94            	top	5.274229e-01	5.274229e-01	5.274229e-01
95            	bottom	5.274478e-01	5.274478e-01	5.274478e-01
95            	top	5.273608e-01	5.273608e-01	5.273608e-01
96            	bottom	5.274513e-01	5.274513e-01	5.274513e-01
96            	top	5.274095e-01	5.274095e-01	5.274095e-01
97            	bottom	5.274317e-01	5.274317e-01	5.274317e-01
97            	top	5.274203e-01	5.274203e-01	5.274203e-01
98            	bottom	5.274299e-01	5.274299e-01	5.274299e-01
98            	top	5.274187e-01	5.274187e-01	5.274187e-01
99            	bottom	5.274288e-01	5.274288e-01	5.274288e-01
99            	top	5.274182e-01	5.274182e-01	5.274182e-01
100           	bottom	5.274282e-01	5.274282e-01	5.274282e-01
100           	top	5.274181e-01	5.274181e-01	5.274181e-01
