/*--------------------------------*- C++ -*----------------------------------*\
  =========                 |
  \\      /  F ield         | OpenFOAM: The Open Source CFD Toolbox
   \\    /   O peration     | Website:  https://openfoam.org
    \\  /    A nd           | Version:  9
     \\/     M anipulation  |
\*---------------------------------------------------------------------------*/
FoamFile
{
    format      ascii;
    class       volVectorField;
    location    "0";
    object      C;
}
// * * * * * * * * * * * * * * * * * * * * * * * * * * * * * * * * * * * * * //

dimensions      [0 1 0 0 0 0 0];

internalField   nonuniform List<vector> 
80
(
(0.05 0.00248041 0.05)
(0.05 0.00772218 0.05)
(0.05 0.0135577 0.05)
(0.05 0.0200541 0.05)
(0.05 0.0272863 0.05)
(0.05 0.0353377 0.05)
(0.05 0.044301 0.05)
(0.05 0.0542795 0.05)
(0.05 0.0653882 0.05)
(0.05 0.0777551 0.05)
(0.05 0.0915228 0.05)
(0.05 0.10685 0.05)
(0.05 0.123913 0.05)
(0.05 0.142908 0.05)
(0.05 0.164056 0.05)
(0.05 0.187598 0.05)
(0.05 0.216667 0.05)
(0.05 0.25 0.05)
(0.05 0.283333 0.05)
(0.05 0.316667 0.05)
(0.05 0.35 0.05)
(0.05 0.383333 0.05)
(0.05 0.416667 0.05)
(0.05 0.45 0.05)
(0.05 0.483333 0.05)
(0.05 0.516667 0.05)
(0.05 0.55 0.05)
(0.05 0.583333 0.05)
(0.05 0.616667 0.05)
(0.05 0.65 0.05)
(0.05 0.683333 0.05)
(0.05 0.716667 0.05)
(0.05 0.75 0.05)
(0.05 0.783333 0.05)
(0.05 0.816667 0.05)
(0.05 0.85 0.05)
(0.05 0.883333 0.05)
(0.05 0.916667 0.05)
(0.05 0.95 0.05)
(0.05 0.983333 0.05)
(0.05 1.01667 0.05)
(0.05 1.05 0.05)
(0.05 1.08333 0.05)
(0.05 1.11667 0.05)
(0.05 1.15 0.05)
(0.05 1.18333 0.05)
(0.05 1.21667 0.05)
(0.05 1.25 0.05)
(0.05 1.28333 0.05)
(0.05 1.31667 0.05)
(0.05 1.35 0.05)
(0.05 1.38333 0.05)
(0.05 1.41667 0.05)
(0.05 1.45 0.05)
(0.05 1.48333 0.05)
(0.05 1.51667 0.05)
(0.05 1.55 0.05)
(0.05 1.58333 0.05)
(0.05 1.61667 0.05)
(0.05 1.65 0.05)
(0.05 1.68333 0.05)
(0.05 1.71667 0.05)
(0.05 1.75 0.05)
(0.05 1.78333 0.05)
(0.05 1.8124 0.05)
(0.05 1.83594 0.05)
(0.05 1.85709 0.05)
(0.05 1.87609 0.05)
(0.05 1.89315 0.05)
(0.05 1.90848 0.05)
(0.05 1.92224 0.05)
(0.05 1.93461 0.05)
(0.05 1.94572 0.05)
(0.05 1.9557 0.05)
(0.05 1.96466 0.05)
(0.05 1.97271 0.05)
(0.05 1.97995 0.05)
(0.05 1.98644 0.05)
(0.05 1.99228 0.05)
(0.05 1.99752 0.05)
)
;

boundaryField
{
    inlet
    {
        type            cyclic;
    }
    outlet
    {
        type            cyclic;
    }
    bottom
    {
        type            calculated;
        value           uniform (0.05 0 0.05);
    }
    top
    {
        type            calculated;
        value           uniform (0.05 2 0.05);
    }
    front
    {
        type            cyclic;
    }
    Back
    {
        type            cyclic;
    }
}


// ************************************************************************* //
