/*--------------------------------*- C++ -*----------------------------------*\
  =========                 |
  \\      /  F ield         | OpenFOAM: The Open Source CFD Toolbox
   \\    /   O peration     | Website:  https://openfoam.org
    \\  /    A nd           | Version:  9
     \\/     M anipulation  |
\*---------------------------------------------------------------------------*/
FoamFile
{
    format      ascii;
    class       volScalarField;
    location    "100";
    object      epsilon;
}
// * * * * * * * * * * * * * * * * * * * * * * * * * * * * * * * * * * * * * //

dimensions      [0 2 -3 0 0 0 0];

internalField   nonuniform List<scalar> 
180
(
0.620127
2.87306
6.44764
12.0019
20.7816
33.2216
47.7863
60.3839
67.8216
70.0843
68.7547
65.4095
61.1449
56.6148
52.1724
47.9893
44.1351
40.6248
37.446
34.5738
31.9791
29.6325
27.5063
25.5754
23.8174
22.2125
20.7436
19.3955
18.1552
17.0113
15.9537
14.9736
14.0635
13.2166
12.4269
11.6892
10.9988
10.3515
9.74376
9.17215
8.63377
8.12594
7.64629
7.19266
6.76311
6.33032
5.90858
5.52475
5.17384
4.85168
4.55481
4.28034
4.02579
3.78908
3.56842
3.36228
3.16932
2.98842
2.81856
2.6589
2.50866
2.36719
2.23391
2.10832
1.98996
1.87846
1.77345
1.67463
1.58174
1.49453
1.41278
1.33631
1.26493
1.19848
1.13681
1.07979
1.02727
0.979136
0.935259
0.895525
0.859821
0.82804
0.80008
0.775845
0.755249
0.738211
0.724666
0.714556
0.707838
0.704483
0.704476
0.707816
0.71452
0.724615
0.738146
0.755169
0.775751
0.799972
0.827919
0.859686
0.895377
0.935098
0.978963
1.02709
1.07959
1.13661
1.19827
1.26471
1.33608
1.41255
1.49429
1.5815
1.67439
1.77321
1.87822
1.98974
2.10811
2.23372
2.36701
2.5085
2.65877
2.81847
2.98836
3.16931
3.36231
3.56851
3.78924
4.02602
4.28064
4.5552
4.85216
5.17442
5.52545
5.90939
6.33126
6.76417
7.19383
7.64756
8.12731
8.63522
9.17368
9.74533
10.3531
11.0004
11.6908
12.4284
13.218
14.0648
14.9748
15.9546
17.0119
18.1556
19.3955
20.7432
22.2117
23.8162
25.5738
27.5043
29.63
31.9763
34.5707
37.4427
40.6215
44.1318
47.986
52.1692
56.6117
61.1415
65.4052
68.7485
70.0749
67.8075
60.3643
47.7634
33.2004
20.7658
11.9918
6.4419
2.87037
0.61953
)
;

boundaryField
{
    inlet
    {
        type            cyclic;
    }
    outlet
    {
        type            cyclic;
    }
    bottom
    {
        type            fixedValue;
        value           uniform 1e-08;
    }
    top
    {
        type            fixedValue;
        value           uniform 1e-08;
    }
    front
    {
        type            cyclic;
    }
    Back
    {
        type            cyclic;
    }
}


// ************************************************************************* //
