/*--------------------------------*- C++ -*----------------------------------*\
  =========                 |
  \\      /  F ield         | OpenFOAM: The Open Source CFD Toolbox
   \\    /   O peration     | Website:  https://openfoam.org
    \\  /    A nd           | Version:  9
     \\/     M anipulation  |
\*---------------------------------------------------------------------------*/
FoamFile
{
    format      ascii;
    class       volScalarField;
    location    "100";
    object      p;
}
// * * * * * * * * * * * * * * * * * * * * * * * * * * * * * * * * * * * * * //

dimensions      [0 2 -2 0 0 0 0];

internalField   nonuniform List<scalar> 
180
(
-1.60732e-16
-2.04079e-16
-2.16e-16
-2.1588e-16
-2.15759e-16
-2.15636e-16
-2.15507e-16
-2.15371e-16
-2.15226e-16
-2.15068e-16
-2.14898e-16
-2.14715e-16
-2.14518e-16
-2.14308e-16
-2.14084e-16
-2.13847e-16
-2.13598e-16
-2.13337e-16
-2.13064e-16
-2.12781e-16
-2.12488e-16
-2.12187e-16
-2.11876e-16
-2.11559e-16
-2.11234e-16
-2.10903e-16
-2.10567e-16
-2.10226e-16
-2.09881e-16
-2.09532e-16
-2.0918e-16
-2.08825e-16
-2.08468e-16
-2.0811e-16
-2.0775e-16
-2.07389e-16
-2.07028e-16
-2.06667e-16
-2.06306e-16
-2.05945e-16
-2.05585e-16
-2.05226e-16
-2.04868e-16
-2.04511e-16
-2.04157e-16
-2.03796e-16
-2.03433e-16
-2.03076e-16
-2.02723e-16
-2.02375e-16
-2.02032e-16
-2.01694e-16
-2.01362e-16
-2.01035e-16
-2.00715e-16
-2.004e-16
-2.00092e-16
-1.99789e-16
-1.99493e-16
-1.99204e-16
-1.98921e-16
-1.98644e-16
-1.98374e-16
-1.9811e-16
-1.97853e-16
-1.97602e-16
-1.97357e-16
-1.97119e-16
-1.96887e-16
-1.96661e-16
-1.9644e-16
-1.96226e-16
-1.96017e-16
-1.95814e-16
-1.95616e-16
-1.95424e-16
-1.95237e-16
-1.95054e-16
-1.94877e-16
-1.94705e-16
-1.94537e-16
-1.94373e-16
-1.94214e-16
-1.94059e-16
-1.93909e-16
-1.93762e-16
-1.9362e-16
-1.93481e-16
-1.93347e-16
-1.93216e-16
-1.93089e-16
-1.92965e-16
-1.92845e-16
-1.92728e-16
-1.92614e-16
-1.92504e-16
-1.92397e-16
-1.92293e-16
-1.92193e-16
-1.92094e-16
-1.91999e-16
-1.91907e-16
-1.91817e-16
-1.91729e-16
-1.91644e-16
-1.91561e-16
-1.91481e-16
-1.91402e-16
-1.91326e-16
-1.91251e-16
-1.91179e-16
-1.91108e-16
-1.91039e-16
-1.90971e-16
-1.90906e-16
-1.90841e-16
-1.90779e-16
-1.90717e-16
-1.90657e-16
-1.90599e-16
-1.90542e-16
-1.90486e-16
-1.90431e-16
-1.90378e-16
-1.90326e-16
-1.90275e-16
-1.90225e-16
-1.90177e-16
-1.90129e-16
-1.90083e-16
-1.90038e-16
-1.89994e-16
-1.89951e-16
-1.89909e-16
-1.89868e-16
-1.89829e-16
-1.89792e-16
-1.89756e-16
-1.89721e-16
-1.89687e-16
-1.89655e-16
-1.89623e-16
-1.89593e-16
-1.89564e-16
-1.89536e-16
-1.89509e-16
-1.89483e-16
-1.89458e-16
-1.89434e-16
-1.89411e-16
-1.89388e-16
-1.89367e-16
-1.89347e-16
-1.89328e-16
-1.8931e-16
-1.89292e-16
-1.89276e-16
-1.8926e-16
-1.89246e-16
-1.89232e-16
-1.8922e-16
-1.89208e-16
-1.89197e-16
-1.89187e-16
-1.89178e-16
-1.8917e-16
-1.89163e-16
-1.89156e-16
-1.89151e-16
-1.89146e-16
-1.89142e-16
-1.89138e-16
-1.89136e-16
-1.89133e-16
-1.89131e-16
-1.8913e-16
-1.89129e-16
-1.89128e-16
-1.89128e-16
-1.89128e-16
)
;

boundaryField
{
    inlet
    {
        type            cyclic;
    }
    outlet
    {
        type            cyclic;
    }
    bottom
    {
        type            zeroGradient;
    }
    top
    {
        type            zeroGradient;
    }
    front
    {
        type            cyclic;
    }
    Back
    {
        type            cyclic;
    }
}


// ************************************************************************* //
