/*--------------------------------*- C++ -*----------------------------------*\
  =========                 |
  \\      /  F ield         | OpenFOAM: The Open Source CFD Toolbox
   \\    /   O peration     | Website:  https://openfoam.org
    \\  /    A nd           | Version:  9
     \\/     M anipulation  |
\*---------------------------------------------------------------------------*/
FoamFile
{
    format      ascii;
    class       surfaceScalarField;
    location    "100";
    object      phi;
}
// * * * * * * * * * * * * * * * * * * * * * * * * * * * * * * * * * * * * * //

dimensions      [0 3 -1 0 0 0 0];

internalField   nonuniform List<scalar> 
179
(
3.21311e-17
3.11454e-17
2.97207e-17
2.925e-17
2.85808e-17
2.82167e-17
2.80564e-17
2.7808e-17
2.75252e-17
2.72216e-17
2.69077e-17
2.65891e-17
2.62683e-17
2.59463e-17
2.56234e-17
2.52995e-17
2.49746e-17
2.46484e-17
2.43208e-17
2.39916e-17
2.3661e-17
2.33287e-17
2.29951e-17
2.266e-17
2.23238e-17
2.19864e-17
2.16482e-17
2.13094e-17
2.097e-17
2.06304e-17
2.02907e-17
1.99511e-17
1.96119e-17
1.92732e-17
1.89351e-17
1.85979e-17
1.82617e-17
1.79265e-17
1.75925e-17
1.72598e-17
1.69285e-17
1.65985e-17
1.62701e-17
1.59432e-17
1.56181e-17
1.52554e-17
1.49086e-17
1.45765e-17
1.42581e-17
1.39522e-17
1.36578e-17
1.3374e-17
1.31e-17
1.28351e-17
1.25787e-17
1.23302e-17
1.20891e-17
1.1855e-17
1.16273e-17
1.14059e-17
1.11902e-17
1.09801e-17
1.07752e-17
1.05752e-17
1.03801e-17
1.01895e-17
1.00032e-17
9.82117e-18
9.64319e-18
9.46915e-18
9.29893e-18
9.13243e-18
8.96956e-18
8.81024e-18
8.65439e-18
8.50193e-18
8.3528e-18
8.20692e-18
8.06422e-18
7.9246e-18
7.788e-18
7.65431e-18
7.52343e-18
7.39525e-18
7.26965e-18
7.14652e-18
7.02572e-18
6.90713e-18
6.79061e-18
6.67604e-18
6.56329e-18
6.45225e-18
6.3428e-18
6.23485e-18
6.12831e-18
6.02311e-18
5.91918e-18
5.81649e-18
5.71499e-18
5.61466e-18
5.51549e-18
5.41749e-18
5.32064e-18
5.22497e-18
5.13049e-18
5.03721e-18
4.94516e-18
4.85434e-18
4.76478e-18
4.67647e-18
4.58944e-18
4.50368e-18
4.41919e-18
4.33596e-18
4.25399e-18
4.17325e-18
4.09372e-18
4.01539e-18
3.93821e-18
3.86216e-18
3.78721e-18
3.71331e-18
3.64041e-18
3.56848e-18
3.49747e-18
3.42733e-18
3.358e-18
3.28944e-18
3.2216e-18
3.15444e-18
3.08791e-18
3.02198e-18
2.95661e-18
2.89174e-18
2.82731e-18
2.77224e-18
2.71919e-18
2.66799e-18
2.61849e-18
2.57054e-18
2.52402e-18
2.47881e-18
2.43481e-18
2.3919e-18
2.35e-18
2.30898e-18
2.26876e-18
2.22924e-18
2.1903e-18
2.15185e-18
2.11379e-18
2.07599e-18
2.03835e-18
2.00074e-18
1.96301e-18
1.92503e-18
1.88663e-18
1.84762e-18
1.8078e-18
1.76693e-18
1.72474e-18
1.68091e-18
1.63506e-18
1.58674e-18
1.5354e-18
1.48036e-18
1.42076e-18
1.35555e-18
1.28337e-18
1.20252e-18
1.1109e-18
1.00618e-18
8.86524e-19
7.52714e-19
6.10342e-19
4.68152e-19
3.33255e-19
2.08767e-19
9.42393e-20
)
;

boundaryField
{
    inlet
    {
        type            cyclic;
        value           nonuniform List<scalar> 
180
(
-0.308325
-0.307075
-0.305775
-0.304422
-0.303016
-0.301554
-0.300035
-0.298455
-0.296811
-0.295101
-0.29332
-0.291464
-0.289528
-0.287506
-0.285391
-0.283176
-0.280852
-0.239066
-0.228696
-0.218748
-0.209203
-0.200046
-0.19126
-0.18283
-0.174741
-0.166979
-0.159529
-0.152379
-0.145515
-0.138924
-0.132596
-0.126516
-0.120676
-0.115062
-0.109664
-0.104472
-0.0994747
-0.0946621
-0.0900236
-0.0855489
-0.0812275
-0.0770484
-0.0730005
-0.0690717
-0.0652494
-0.0615194
-0.057866
-0.0542712
-0.050714
-0.0471695
-0.0436079
-0.0399932
-0.0362828
-0.0324283
-0.0283845
-0.0241383
-0.019773
-0.0154863
-0.0114615
-0.00777331
-0.00442787
-0.00140815
-0.309525
-0.310678
-0.311783
-0.312841
-0.313854
-0.314821
-0.315743
-0.316621
-0.317454
-0.318243
-0.318988
-0.319689
-0.320347
-0.320961
-0.321532
-0.32206
-0.322545
-0.322988
-0.323388
-0.323747
-0.324065
-0.324342
-0.324578
-0.324775
-0.324931
-0.325048
-0.325126
-0.325165
-0.325165
-0.325126
-0.325048
-0.324931
-0.324775
-0.324579
-0.324342
-0.324065
-0.323748
-0.323389
-0.322988
-0.322545
-0.32206
-0.321532
-0.320961
-0.320347
-0.319689
-0.318988
-0.318243
-0.317454
-0.316621
-0.315744
-0.314821
-0.313854
-0.312842
-0.311784
-0.310679
-0.309526
-0.308326
-0.307076
-0.305776
-0.304424
-0.303018
-0.301557
-0.300037
-0.298458
-0.296814
-0.295104
-0.293324
-0.291468
-0.289532
-0.287511
-0.285397
-0.283182
-0.280858
-0.239072
-0.228702
-0.218753
-0.209208
-0.200051
-0.191265
-0.182835
-0.174746
-0.166983
-0.159534
-0.152383
-0.145519
-0.138928
-0.132599
-0.12652
-0.120679
-0.115065
-0.109667
-0.104475
-0.0994775
-0.0946647
-0.0900261
-0.0855513
-0.0812297
-0.0770505
-0.0730025
-0.0690737
-0.0652512
-0.0615211
-0.0578675
-0.0542726
-0.0507152
-0.0471706
-0.0436088
-0.0399939
-0.0362832
-0.0324285
-0.0283845
-0.024138
-0.0197725
-0.0154858
-0.011461
-0.00777301
-0.0044277
-0.0014081
)
;
    }
    outlet
    {
        type            cyclic;
        value           nonuniform List<scalar> 
180
(
0.308325
0.307075
0.305775
0.304422
0.303016
0.301554
0.300035
0.298455
0.296811
0.295101
0.29332
0.291464
0.289528
0.287506
0.285391
0.283176
0.280852
0.239066
0.228696
0.218748
0.209203
0.200046
0.19126
0.18283
0.174741
0.166979
0.159529
0.152379
0.145515
0.138924
0.132596
0.126516
0.120676
0.115062
0.109664
0.104472
0.0994747
0.0946621
0.0900236
0.0855489
0.0812275
0.0770484
0.0730005
0.0690717
0.0652494
0.0615194
0.057866
0.0542712
0.050714
0.0471695
0.0436079
0.0399932
0.0362828
0.0324283
0.0283845
0.0241383
0.019773
0.0154863
0.0114615
0.00777331
0.00442787
0.00140815
0.309525
0.310678
0.311783
0.312841
0.313854
0.314821
0.315743
0.316621
0.317454
0.318243
0.318988
0.319689
0.320347
0.320961
0.321532
0.32206
0.322545
0.322988
0.323388
0.323747
0.324065
0.324342
0.324578
0.324775
0.324931
0.325048
0.325126
0.325165
0.325165
0.325126
0.325048
0.324931
0.324775
0.324579
0.324342
0.324065
0.323748
0.323389
0.322988
0.322545
0.32206
0.321532
0.320961
0.320347
0.319689
0.318988
0.318243
0.317454
0.316621
0.315744
0.314821
0.313854
0.312842
0.311784
0.310679
0.309526
0.308326
0.307076
0.305776
0.304424
0.303018
0.301557
0.300037
0.298458
0.296814
0.295104
0.293324
0.291468
0.289532
0.287511
0.285397
0.283182
0.280858
0.239072
0.228702
0.218753
0.209208
0.200051
0.191265
0.182835
0.174746
0.166983
0.159534
0.152383
0.145519
0.138928
0.132599
0.12652
0.120679
0.115065
0.109667
0.104475
0.0994775
0.0946647
0.0900261
0.0855513
0.0812297
0.0770505
0.0730025
0.0690737
0.0652512
0.0615211
0.0578675
0.0542726
0.0507152
0.0471706
0.0436088
0.0399939
0.0362832
0.0324285
0.0283845
0.024138
0.0197725
0.0154858
0.011461
0.00777301
0.0044277
0.0014081
)
;
    }
    bottom
    {
        type            calculated;
        value           uniform 0;
    }
    top
    {
        type            calculated;
        value           uniform 0;
    }
    front
    {
        type            cyclic;
        value           nonuniform List<scalar> 
180
(
-1.15514e-36
-1.14884e-36
-1.15404e-36
-1.13631e-36
-1.14108e-36
-1.12387e-36
-1.12817e-36
-1.11151e-36
-1.10536e-36
-1.09922e-36
-1.0931e-36
-1.087e-36
-1.08092e-36
-1.07486e-36
-1.06882e-36
-1.06281e-36
-1.06469e-36
-1.05085e-36
-1.05966e-36
-1.03899e-36
-1.03998e-36
-1.02723e-36
-1.02138e-36
-1.01555e-36
-1.00975e-36
-1.00396e-36
-9.98179e-37
-9.92409e-37
-9.96775e-37
-9.80878e-37
-9.75109e-37
-9.6047e-37
-9.6354e-37
-9.57733e-37
-9.51907e-37
-9.46058e-37
-9.40184e-37
-9.40765e-37
-9.28355e-37
-9.22398e-37
-9.16412e-37
-9.10397e-37
-8.99656e-37
-8.98284e-37
-8.92189e-37
-8.86068e-37
-8.79924e-37
-8.73757e-37
-8.67568e-37
-8.61358e-37
-8.52828e-37
-8.44798e-37
-8.40817e-37
-8.36309e-37
-8.2999e-37
-8.23646e-37
-8.17274e-37
-8.10872e-37
-8.03579e-37
-7.9796e-37
-7.91442e-37
-7.84876e-37
-7.78601e-37
-7.71574e-37
-7.64825e-37
-7.58865e-37
-7.51085e-37
-7.44074e-37
-7.36955e-37
-7.28214e-37
-7.22333e-37
-7.13003e-37
-7.07088e-37
-6.9918e-37
-5.93521e-37
-5.66381e-37
-5.40473e-37
-5.15737e-37
-4.90898e-37
-4.69542e-37
-4.47974e-37
-4.27358e-37
-4.07648e-37
-3.88797e-37
-3.70764e-37
-3.53507e-37
-3.36988e-37
-3.20292e-37
-3.06863e-37
-2.89872e-37
-2.77577e-37
-2.64224e-37
-2.5141e-37
-2.39103e-37
-2.27945e-37
-2.15901e-37
-2.06804e-37
-1.96176e-37
-1.84201e-37
-1.74348e-37
-1.63742e-37
-1.56037e-37
-1.46495e-37
-1.37661e-37
-1.28983e-37
-1.2041e-37
-1.11882e-37
-1.03327e-37
-9.49596e-38
-8.57815e-38
-7.66844e-38
-6.69405e-38
-5.68464e-38
-4.6496e-38
-3.63598e-38
-2.68688e-38
-1.81954e-38
-1.19778e-38
-3.2853e-39
-1.16147e-36
-1.16784e-36
-1.17424e-36
-1.18069e-36
-1.18719e-36
-1.19373e-36
-1.20034e-36
-1.21337e-36
-1.21377e-36
-1.2206e-36
-1.22753e-36
-1.22866e-36
-1.25305e-36
-1.249e-36
-1.25644e-36
-1.26405e-36
-1.09097e-36
-1.05736e-36
-1.02469e-36
-9.91374e-37
-9.62928e-37
-9.32218e-37
-9.03182e-37
-8.75012e-37
-8.46164e-37
-8.21207e-37
-7.95536e-37
-7.70664e-37
-7.46573e-37
-7.23246e-37
-6.95106e-37
-6.78813e-37
-6.57673e-37
-6.37227e-37
-6.26514e-37
-5.98352e-37
-5.7989e-37
-5.62058e-37
-5.44844e-37
-5.28235e-37
-5.19886e-37
-4.96807e-37
-4.81983e-37
-4.58376e-37
-4.54158e-37
-4.30626e-37
-4.23333e-37
-4.11484e-37
-4.06632e-37
-3.96753e-37
-3.87807e-37
-3.87022e-37
-3.72919e-37
-3.67146e-37
-3.62993e-37
-3.65848e-37
-3.69395e-37
-3.54734e-37
-3.03251e-37
-2.02163e-37
-8.87181e-38
)
;
    }
    Back
    {
        type            cyclic;
        value           nonuniform List<scalar> 
180
(
1.15514e-36
1.14884e-36
1.15404e-36
1.13631e-36
1.14108e-36
1.12387e-36
1.12817e-36
1.11151e-36
1.10536e-36
1.09922e-36
1.0931e-36
1.087e-36
1.08092e-36
1.07486e-36
1.06882e-36
1.06281e-36
1.06469e-36
1.05085e-36
1.05966e-36
1.03899e-36
1.03998e-36
1.02723e-36
1.02138e-36
1.01555e-36
1.00975e-36
1.00396e-36
9.98179e-37
9.92409e-37
9.96775e-37
9.80878e-37
9.75109e-37
9.6047e-37
9.6354e-37
9.57733e-37
9.51907e-37
9.46058e-37
9.40184e-37
9.40765e-37
9.28355e-37
9.22398e-37
9.16412e-37
9.10397e-37
8.99656e-37
8.98284e-37
8.92189e-37
8.86068e-37
8.79924e-37
8.73757e-37
8.67568e-37
8.61358e-37
8.52828e-37
8.44798e-37
8.40817e-37
8.36309e-37
8.2999e-37
8.23646e-37
8.17274e-37
8.10872e-37
8.03579e-37
7.9796e-37
7.91442e-37
7.84876e-37
7.78601e-37
7.71574e-37
7.64825e-37
7.58865e-37
7.51085e-37
7.44074e-37
7.36955e-37
7.28214e-37
7.22333e-37
7.13003e-37
7.07088e-37
6.9918e-37
5.93521e-37
5.66381e-37
5.40473e-37
5.15737e-37
4.90898e-37
4.69542e-37
4.47974e-37
4.27358e-37
4.07648e-37
3.88797e-37
3.70764e-37
3.53507e-37
3.36988e-37
3.20292e-37
3.06863e-37
2.89872e-37
2.77577e-37
2.64224e-37
2.5141e-37
2.39103e-37
2.27945e-37
2.15901e-37
2.06804e-37
1.96176e-37
1.84201e-37
1.74348e-37
1.63742e-37
1.56037e-37
1.46495e-37
1.37661e-37
1.28983e-37
1.2041e-37
1.11882e-37
1.03327e-37
9.49596e-38
8.57815e-38
7.66844e-38
6.69405e-38
5.68464e-38
4.6496e-38
3.63598e-38
2.68688e-38
1.81954e-38
1.19778e-38
3.2853e-39
1.16147e-36
1.16784e-36
1.17424e-36
1.18069e-36
1.18719e-36
1.19373e-36
1.20034e-36
1.21337e-36
1.21377e-36
1.2206e-36
1.22753e-36
1.22866e-36
1.25305e-36
1.249e-36
1.25644e-36
1.26405e-36
1.09097e-36
1.05736e-36
1.02469e-36
9.91374e-37
9.62928e-37
9.32218e-37
9.03182e-37
8.75012e-37
8.46164e-37
8.21207e-37
7.95536e-37
7.70664e-37
7.46573e-37
7.23246e-37
6.95106e-37
6.78813e-37
6.57673e-37
6.37227e-37
6.26514e-37
5.98352e-37
5.7989e-37
5.62058e-37
5.44844e-37
5.28235e-37
5.19886e-37
4.96807e-37
4.81983e-37
4.58376e-37
4.54158e-37
4.30626e-37
4.23333e-37
4.11484e-37
4.06632e-37
3.96753e-37
3.87807e-37
3.87022e-37
3.72919e-37
3.67146e-37
3.62993e-37
3.65848e-37
3.69395e-37
3.54734e-37
3.03251e-37
2.02163e-37
8.87181e-38
)
;
    }
}


// ************************************************************************* //
