/*--------------------------------*- C++ -*----------------------------------*\
  =========                 |
  \\      /  F ield         | OpenFOAM: The Open Source CFD Toolbox
   \\    /   O peration     | Website:  https://openfoam.org
    \\  /    A nd           | Version:  9
     \\/     M anipulation  |
\*---------------------------------------------------------------------------*/
FoamFile
{
    format      ascii;
    class       volScalarField;
    location    "100";
    object      Ux;
}
// * * * * * * * * * * * * * * * * * * * * * * * * * * * * * * * * * * * * * //

dimensions      [0 1 -1 0 0 0 0];

internalField   nonuniform List<scalar> 
180
(
0.527433
1.59892
2.70615
3.84681
5.01099
6.16825
7.25956
8.23
9.06477
9.77794
10.3908
10.923
11.3907
11.8068
12.1811
12.5215
12.8339
13.1231
13.3929
13.6463
13.8857
14.1131
14.33
14.538
14.738
14.931
15.1178
15.2992
15.4757
15.6478
15.8159
15.9805
16.1419
16.3004
16.4562
16.6096
16.7608
16.91
17.0573
17.2028
17.3468
17.4893
17.6304
17.7702
17.9088
18.0548
18.2042
18.3466
18.4825
18.6125
18.7369
18.8563
18.9708
19.0807
19.1864
19.2879
19.3856
19.4796
19.57
19.6569
19.7405
19.8209
19.8981
19.9721
20.0432
20.1112
20.1763
20.2385
20.2978
20.3542
20.4077
20.4585
20.5064
20.5514
20.5937
20.6332
20.6699
20.7038
20.735
20.7635
20.7893
20.8123
20.8328
20.8506
20.8657
20.8784
20.8884
20.896
20.901
20.9035
20.9035
20.901
20.896
20.8884
20.8784
20.8658
20.8506
20.8328
20.8124
20.7893
20.7635
20.735
20.7039
20.6699
20.6332
20.5937
20.5515
20.5064
20.4585
20.4078
20.3542
20.2978
20.2385
20.1764
20.1113
20.0432
19.9722
19.8981
19.821
19.7406
19.657
19.5701
19.4797
19.3858
19.2881
19.1866
19.0809
18.971
18.8565
18.7372
18.6128
18.4828
18.3469
18.2046
18.0552
17.9092
17.7707
17.6309
17.4898
17.3473
17.2033
17.0577
16.9104
16.7613
16.6101
16.4567
16.3008
16.1424
15.981
15.8164
15.6482
15.4761
15.2996
15.1183
14.9314
14.7384
14.5384
14.3304
14.1135
13.8861
13.6467
13.3933
13.1235
12.8343
12.5218
12.1814
11.8071
11.391
10.9232
10.391
9.77807
9.06484
8.22999
7.25946
6.16809
5.01082
3.84667
2.70605
1.59886
0.527412
)
;

boundaryField
{
    inlet
    {
        type            cyclic;
    }
    outlet
    {
        type            cyclic;
    }
    bottom
    {
        type            calculated;
        value           uniform 0;
    }
    top
    {
        type            calculated;
        value           uniform 0;
    }
    front
    {
        type            cyclic;
    }
    Back
    {
        type            cyclic;
    }
}


// ************************************************************************* //
