/*--------------------------------*- C++ -*----------------------------------*\
  =========                 |
  \\      /  F ield         | OpenFOAM: The Open Source CFD Toolbox
   \\    /   O peration     | Website:  https://openfoam.org
    \\  /    A nd           | Version:  9
     \\/     M anipulation  |
\*---------------------------------------------------------------------------*/
FoamFile
{
    format      ascii;
    class       volScalarField;
    location    "100";
    object      Uy;
}
// * * * * * * * * * * * * * * * * * * * * * * * * * * * * * * * * * * * * * //

dimensions      [0 1 -1 0 0 0 0];

internalField   nonuniform List<scalar> 
180
(
1.5856e-17
3.45225e-17
3.27856e-17
2.98874e-17
2.87301e-17
2.8263e-17
2.81684e-17
2.79401e-17
2.76709e-17
2.73741e-17
2.70634e-17
2.67463e-17
2.64262e-17
2.61046e-17
2.57821e-17
2.54588e-17
2.51344e-17
2.48089e-17
2.4482e-17
2.41536e-17
2.38237e-17
2.34922e-17
2.31592e-17
2.28248e-17
2.24891e-17
2.21523e-17
2.18145e-17
2.14759e-17
2.11367e-17
2.07971e-17
2.04574e-17
2.01178e-17
1.97783e-17
1.94393e-17
1.91009e-17
1.87632e-17
1.84265e-17
1.80907e-17
1.77561e-17
1.74228e-17
1.70907e-17
1.67601e-17
1.64309e-17
1.61033e-17
1.57774e-17
1.54322e-17
1.50781e-17
1.4739e-17
1.44141e-17
1.41021e-17
1.38022e-17
1.35133e-17
1.32346e-17
1.29654e-17
1.27049e-17
1.24525e-17
1.22079e-17
1.19703e-17
1.17396e-17
1.15151e-17
1.12966e-17
1.10838e-17
1.08764e-17
1.0674e-17
1.04765e-17
1.02837e-17
1.00953e-17
9.91115e-18
9.73118e-18
9.5552e-18
9.38309e-18
9.21476e-18
9.0501e-18
8.88902e-18
8.73145e-18
8.57732e-18
8.42654e-18
8.27906e-18
8.13478e-18
7.99364e-18
7.85556e-18
7.72044e-18
7.58818e-18
7.45868e-18
7.33182e-18
7.20749e-18
7.08555e-18
6.96589e-18
6.84837e-18
6.73285e-18
6.61922e-18
6.50736e-18
6.39714e-18
6.28846e-18
6.18124e-18
6.07538e-18
5.97083e-18
5.86753e-18
5.76544e-18
5.66453e-18
5.56479e-18
5.4662e-18
5.36877e-18
5.27251e-18
5.17743e-18
5.08355e-18
4.99088e-18
4.89944e-18
4.80924e-18
4.72031e-18
4.63264e-18
4.54624e-18
4.46112e-18
4.37726e-18
4.29466e-18
4.21331e-18
4.13318e-18
4.05426e-18
3.97651e-18
3.89991e-18
3.82442e-18
3.75e-18
3.67661e-18
3.60421e-18
3.53275e-18
3.46219e-18
3.39247e-18
3.32354e-18
3.25535e-18
3.18786e-18
3.12102e-18
3.0548e-18
2.98916e-18
2.92405e-18
2.8594e-18
2.79976e-18
2.74572e-18
2.69362e-18
2.64329e-18
2.59458e-18
2.54736e-18
2.50151e-18
2.45692e-18
2.41349e-18
2.3711e-18
2.32965e-18
2.28905e-18
2.2492e-18
2.20999e-18
2.17132e-18
2.13309e-18
2.09518e-18
2.05749e-18
2.0199e-18
1.98226e-18
1.94445e-18
1.90631e-18
1.86765e-18
1.8283e-18
1.78803e-18
1.74659e-18
1.70368e-18
1.65896e-18
1.61202e-18
1.56237e-18
1.5094e-18
1.45236e-18
1.39031e-18
1.32205e-18
1.24609e-18
1.16052e-18
1.06306e-18
9.51332e-19
8.24042e-19
6.83947e-19
5.39381e-19
3.99481e-19
2.69409e-19
1.50302e-19
4.0173e-20
)
;

boundaryField
{
    inlet
    {
        type            cyclic;
    }
    outlet
    {
        type            cyclic;
    }
    bottom
    {
        type            calculated;
        value           uniform 0;
    }
    top
    {
        type            calculated;
        value           uniform 0;
    }
    front
    {
        type            cyclic;
    }
    Back
    {
        type            cyclic;
    }
}


// ************************************************************************* //
