/*--------------------------------*- C++ -*----------------------------------*\
  =========                 |
  \\      /  F ield         | OpenFOAM: The Open Source CFD Toolbox
   \\    /   O peration     | Website:  https://openfoam.org
    \\  /    A nd           | Version:  9
     \\/     M anipulation  |
\*---------------------------------------------------------------------------*/
FoamFile
{
    format      ascii;
    class       volScalarField;
    location    "100";
    object      Uz;
}
// * * * * * * * * * * * * * * * * * * * * * * * * * * * * * * * * * * * * * //

dimensions      [0 1 -1 0 0 0 0];

internalField   nonuniform List<scalar> 
180
(
8.66325e-36
8.58408e-35
1.12748e-34
1.19059e-34
1.1681e-34
1.12814e-34
1.0917e-34
1.06453e-34
1.04243e-34
1.02366e-34
1.00757e-34
9.93793e-35
9.81955e-35
9.71704e-35
9.62711e-35
9.54699e-35
9.47445e-35
9.40776e-35
9.34561e-35
9.28704e-35
9.23134e-35
9.17796e-35
9.12651e-35
9.07671e-35
9.02832e-35
8.98116e-35
8.93508e-35
8.88994e-35
8.84563e-35
8.80204e-35
8.75907e-35
8.71661e-35
8.67458e-35
8.63288e-35
8.59142e-35
8.55011e-35
8.50887e-35
8.46763e-35
8.42631e-35
8.38483e-35
8.34312e-35
8.30111e-35
8.25874e-35
8.21594e-35
8.17264e-35
8.12604e-35
8.07712e-35
8.02931e-35
7.98246e-35
7.93648e-35
7.89126e-35
7.84672e-35
7.80278e-35
7.75939e-35
7.71648e-35
7.674e-35
7.63191e-35
7.59016e-35
7.54871e-35
7.50754e-35
7.46661e-35
7.4259e-35
7.38538e-35
7.34504e-35
7.30485e-35
7.2648e-35
7.22488e-35
7.18509e-35
7.14542e-35
7.10586e-35
7.06641e-35
7.02708e-35
6.98787e-35
6.94878e-35
6.90983e-35
6.87101e-35
6.83234e-35
6.79382e-35
6.75545e-35
6.71725e-35
6.67921e-35
6.64132e-35
6.6036e-35
6.56601e-35
6.52857e-35
6.49124e-35
6.45401e-35
6.41687e-35
6.37977e-35
6.34271e-35
6.30565e-35
6.26856e-35
6.23141e-35
6.19419e-35
6.15686e-35
6.1194e-35
6.0818e-35
6.04404e-35
6.00611e-35
5.968e-35
5.9297e-35
5.89122e-35
5.85255e-35
5.81371e-35
5.77469e-35
5.7355e-35
5.69615e-35
5.65665e-35
5.61701e-35
5.57722e-35
5.5373e-35
5.49725e-35
5.45706e-35
5.41674e-35
5.37627e-35
5.33565e-35
5.29487e-35
5.25391e-35
5.21275e-35
5.17137e-35
5.12974e-35
5.08784e-35
5.04563e-35
5.00307e-35
4.96012e-35
4.91673e-35
4.87284e-35
4.8284e-35
4.78334e-35
4.73757e-35
4.69101e-35
4.64357e-35
4.59513e-35
4.54557e-35
4.49473e-35
4.44615e-35
4.40091e-35
4.35606e-35
4.31155e-35
4.26731e-35
4.22329e-35
4.17941e-35
4.13562e-35
4.09184e-35
4.04802e-35
4.00407e-35
3.95994e-35
3.91553e-35
3.87077e-35
3.82556e-35
3.7798e-35
3.73338e-35
3.68619e-35
3.63808e-35
3.5889e-35
3.53848e-35
3.4866e-35
3.43304e-35
3.37751e-35
3.31968e-35
3.25916e-35
3.19547e-35
3.12803e-35
3.05611e-35
2.97881e-35
2.89502e-35
2.80328e-35
2.70178e-35
2.58815e-35
2.45941e-35
2.31175e-35
2.14056e-35
1.94092e-35
1.70965e-35
1.45046e-35
1.17651e-35
9.01797e-36
6.33445e-36
3.73708e-36
1.23053e-36
)
;

boundaryField
{
    inlet
    {
        type            cyclic;
    }
    outlet
    {
        type            cyclic;
    }
    bottom
    {
        type            calculated;
        value           uniform 0;
    }
    top
    {
        type            calculated;
        value           uniform 0;
    }
    front
    {
        type            cyclic;
    }
    Back
    {
        type            cyclic;
    }
}


// ************************************************************************* //
