/*--------------------------------*- C++ -*----------------------------------*\
  =========                 |
  \\      /  F ield         | OpenFOAM: The Open Source CFD Toolbox
   \\    /   O peration     | Website:  https://openfoam.org
    \\  /    A nd           | Version:  9
     \\/     M anipulation  |
\*---------------------------------------------------------------------------*/
FoamFile
{
    format      ascii;
    class       volScalarField;
    location    "0";
    object      Cy;
}
// * * * * * * * * * * * * * * * * * * * * * * * * * * * * * * * * * * * * * //

dimensions      [0 1 0 0 0 0 0];

internalField   nonuniform List<scalar> 
180
(
0.00133491
0.00405446
0.00687533
0.00980129
0.0128363
0.0159843
0.0192496
0.0226366
0.0261497
0.0297938
0.0335736
0.0374942
0.0415609
0.0457791
0.0501544
0.0546927
0.0594002
0.0642829
0.0693476
0.074601
0.0800501
0.0857023
0.0915649
0.0976461
0.103954
0.110496
0.117283
0.124322
0.131623
0.139197
0.147053
0.155201
0.163653
0.17242
0.181513
0.190945
0.200729
0.210877
0.221403
0.232321
0.243646
0.255393
0.267578
0.280216
0.293325
0.307778
0.323333
0.338889
0.354444
0.37
0.385556
0.401111
0.416667
0.432222
0.447778
0.463333
0.478889
0.494444
0.51
0.525556
0.541111
0.556667
0.572222
0.587778
0.603333
0.618889
0.634444
0.65
0.665556
0.681111
0.696667
0.712222
0.727778
0.743333
0.758889
0.774444
0.79
0.805556
0.821111
0.836667
0.852222
0.867778
0.883333
0.898889
0.914444
0.93
0.945556
0.961111
0.976667
0.992222
1.00778
1.02333
1.03889
1.05444
1.07
1.08556
1.10111
1.11667
1.13222
1.14778
1.16333
1.17889
1.19444
1.21
1.22556
1.24111
1.25667
1.27222
1.28778
1.30333
1.31889
1.33444
1.35
1.36556
1.38111
1.39667
1.41222
1.42778
1.44333
1.45889
1.47444
1.49
1.50556
1.52111
1.53667
1.55222
1.56778
1.58333
1.59889
1.61444
1.63
1.64556
1.66111
1.67667
1.69222
1.70667
1.71978
1.73242
1.74461
1.75635
1.76768
1.7786
1.78912
1.79927
1.80905
1.81849
1.82758
1.83635
1.8448
1.85295
1.8608
1.86838
1.87568
1.88272
1.8895
1.89605
1.90235
1.90844
1.9143
1.91995
1.9254
1.93065
1.93572
1.9406
1.94531
1.94985
1.95422
1.95844
1.96251
1.96643
1.97021
1.97385
1.97736
1.98075
1.98402
1.98716
1.9902
1.99312
1.99595
1.99867
)
;

boundaryField
{
    inlet
    {
        type            cyclic;
    }
    outlet
    {
        type            cyclic;
    }
    bottom
    {
        type            calculated;
        value           uniform 0;
    }
    top
    {
        type            calculated;
        value           uniform 2;
    }
    front
    {
        type            cyclic;
    }
    Back
    {
        type            cyclic;
    }
}


// ************************************************************************* //
